# vtk DataFile Version 2.0
2D Simulation Python
ASCII
DATASET UNSTRUCTURED_GRID
FIELD FieldData 1
NODES 1 2 int
10611 5098

POINTS 10611 double
0.0 1.0 0.0
1.85 1.0 0.0
2.15 1.0 0.0
2.5312 0.9845000000000002 0.0
2.804 0.8597000000000001 0.0
3.1897 0.7164000000000001 0.0
3.4784 0.6349999999999998 0.0
3.8514 0.5613000000000001 0.0
4.1492 0.5257999999999998 0.0
4.5167 0.5049000000000001 0.0
4.8167 0.5003000000000002 0.0
5.1833 0.5003000000000002 0.0
5.4833 0.5049000000000001 0.0
5.8508 0.5257999999999998 0.0
6.1486 0.5613000000000001 0.0
6.5216 0.6349999999999998 0.0
6.8103 0.7164000000000001 0.0
7.196 0.8597000000000001 0.0
7.4688 0.9845000000000002 0.0
7.85 1.0 0.0
8.15 1.0 0.0
10.0 1.0 0.0
2.0 0.8500000000000001 0.0
2.604294 0.7837869999999998 0.0
3.292593 0.5288279999999999 0.0
3.982247 0.3922810000000001 0.0
4.6644 0.3515969999999999 0.0
5.3356 0.3515969999999999 0.0
6.017753 0.3922810000000001 0.0
6.707407 0.5288279999999999 0.0
7.395706 0.7837869999999998 0.0
8.0 0.8500000000000001 0.0
0.0 0.0 0.0
10.0 0.0 0.0
0.09589869952291516 1.0 0.0
0.1888147635033504 1.0 0.0
0.2788409054415558 1.0 0.0
0.3660670333996566 1.0 0.0
0.4505802302878947 1.0 0.0
0.5324648790931192 1.0 0.0
0.6118027156217198 1.0 0.0
0.6886729728356462 1.0 0.0
0.7631523848471844 1.0 0.0
0.8353153174851218 1.0 0.0
0.9052338217649879 1.0 0.0
0.9729776980408794 1.0 0.0
1.038614580849525 1.0 0.0
1.102210010843471 1.0 0.0
1.163827479442682 1.0 0.0
1.223528508355988 1.0 0.0
1.281372692526642 1.0 0.0
1.337417785230084 1.0 0.0
1.391719743967992 1.0 0.0
1.444332799787133 1.0 0.0
1.495309459666087 1.0 0.0
1.544700643890327 1.0 0.0
1.592555642113107 1.0 0.0
1.638922222094626 1.0 0.0
1.683846722920012 1.0 0.0
1.727373960837219 1.0 0.0
1.769547395111623 1.0 0.0
1.810409141995569 1.0 0.0
0.04794934976146541 1.0 0.0
0.1423567315131277 1.0 0.0
0.2338278344724776 1.0 0.0
0.322453969420604 1.0 0.0
0.4083236318437693 1.0 0.0
0.4915225546905059 1.0 0.0
0.5721337973574282 1.0 0.0
0.6502378442286719 1.0 0.0
0.7259126788414144 1.0 0.0
0.7992338511661451 1.0 0.0
0.8702745696250607 1.0 0.0
0.9391057599028793 1.0 0.0
1.005796139445209 1.0 0.0
1.070412295846505 1.0 0.0
1.133018745143076 1.0 0.0
1.19367799389933 1.0 0.0
1.252450600441303 1.0 0.0
1.309395238878363 1.0 0.0
1.364568764599029 1.0 0.0
1.418026271877568 1.0 0.0
1.46982112972661 1.0 0.0
1.520005051778207 1.0 0.0
1.568628143001706 1.0 0.0
1.615738932103834 1.0 0.0
1.661384472507319 1.0 0.0
1.705610341878616 1.0 0.0
1.748460677974425 1.0 0.0
1.789978268553592 1.0 0.0
1.830204570997791 1.0 0.0
2.188119999999948 0.9984500000000022 0.0
2.226239999999895 0.9969000000000042 0.0
2.264359999999671 0.9953500000000134 0.0
2.302479999999619 0.9938000000000156 0.0
2.340599999999567 0.9922500000000177 0.0
2.378719999999689 0.9907000000000128 0.0
2.416839999999636 0.989150000000015 0.0
2.454959999999585 0.987600000000017 0.0
2.493079999999706 0.9860500000000121 0.0
2.169060000000055 0.9992249999999978 0.0
2.20718000000007 0.9976749999999972 0.0
2.245299999999551 0.9961250000000182 0.0
2.283419999999693 0.9945750000000125 0.0
2.321539999999803 0.993025000000008 0.0
2.359659999999664 0.9914750000000138 0.0
2.39777999999961 0.9899250000000159 0.0
2.435899999999312 0.9883750000000281 0.0
2.474019999999563 0.9868250000000179 0.0
2.512140000000032 0.9852749999999988 0.0
2.839063636363584 0.8466727272727468 0.0
2.874127272727092 0.8336454545455219 0.0
2.909190909090677 0.8206181818182683 0.0
2.944254545454222 0.8075909090910295 0.0
2.97931818181763 0.7945636363638415 0.0
3.014381818181257 0.7815363636365724 0.0
3.049445454545112 0.7685090909092184 0.0
3.084509090908891 0.7554818181818926 0.0
3.119572727272518 0.7424545454546234 0.0
3.154636363636221 0.729427272727326 0.0
2.821531818181787 0.8531863636363756 0.0
2.856595454545446 0.8401590909090944 0.0
2.891659090908758 0.827131818181942 0.0
2.926722727272589 0.8141045454545969 0.0
2.961786363635887 0.80107727272745 0.0
2.996849999999454 0.7880500000002032 0.0
3.031913636363022 0.7750227272729556 0.0
3.066977272726973 0.761995454545566 0.0
3.102040909090645 0.7489681818182802 0.0
3.13710454545425 0.7359409090910191 0.0
3.172168181818027 0.7229136363636943 0.0
3.515699999999767 0.6276300000000459 0.0
3.552999999999703 0.6202600000000585 0.0
3.59029999999978 0.6128900000000433 0.0
3.627599999999699 0.6055200000000595 0.0
3.664899999999474 0.5981500000001038 0.0
3.702199999999584 0.5907800000000822 0.0
3.739499999999687 0.5834100000000619 0.0
3.776799999999796 0.5760400000000403 0.0
3.814099999999899 0.56867000000002 0.0
3.49704999999981 0.6313150000000375 0.0
3.534349999999738 0.6239450000000516 0.0
3.571649999999759 0.6165750000000475 0.0
3.608949999999585 0.6092050000000819 0.0
3.646249999999436 0.6018350000001114 0.0
3.68354999999952 0.5944650000000948 0.0
3.720849999999593 0.5870950000000805 0.0
3.758149999999735 0.5797250000000524 0.0
3.795449999999833 0.5723550000000331 0.0
3.832749999999933 0.5649850000000134 0.0
4.185950000000035 0.5237099999999979 0.0
4.22269999999962 0.5216200000000215 0.0
4.259449999999689 0.5195300000000176 0.0
4.296199999999274 0.5174400000000412 0.0
4.332949999999307 0.5153500000000395 0.0
4.369699999999686 0.5132600000000178 0.0
4.406449999999271 0.5111700000000414 0.0
4.443200000000032 0.5090799999999982 0.0
4.47994999999962 0.5069900000000217 0.0
4.167574999999501 0.5247550000000282 0.0
4.204324999999775 0.5226650000000127 0.0
4.241074999999278 0.520575000000041 0.0
4.277824999999736 0.518485000000015 0.0
4.314574999999147 0.5163950000000485 0.0
4.351324999999798 0.5143050000000114 0.0
4.38807499999939 0.5122150000000347 0.0
4.42482499999942 0.510125000000033 0.0
4.461574999999661 0.5080350000000193 0.0
4.498324999999809 0.505945000000011 0.0
4.85335999999993 0.5003000000000002 0.0
4.890019999999688 0.5003000000000002 0.0
4.926679999999445 0.5003000000000002 0.0
4.963339999999202 0.5003000000000002 0.0
4.99999999999948 0.5003000000000002 0.0
5.036659999999757 0.5003000000000002 0.0
5.073319999999861 0.5003000000000002 0.0
5.109979999999966 0.5003000000000002 0.0
5.14664000000007 0.5003000000000002 0.0
4.835029999999882 0.5003000000000002 0.0
4.871689999999809 0.5003000000000002 0.0
4.908349999999566 0.5003000000000002 0.0
4.945009999999323 0.5003000000000002 0.0
4.98166999999934 0.5003000000000002 0.0
5.018329999999701 0.5003000000000002 0.0
5.054990000000056 0.5003000000000002 0.0
5.091650000000078 0.5003000000000002 0.0
5.128310000000018 0.5003000000000002 0.0
5.164970000000035 0.5003000000000002 0.0
5.520050000000034 0.506990000000002 0.0
5.556799999999619 0.5090799999999784 0.0
5.593549999999689 0.5111699999999824 0.0
5.630299999999274 0.5132599999999587 0.0
5.667049999999306 0.5153499999999605 0.0
5.703799999999686 0.5174399999999821 0.0
5.740549999999271 0.5195299999999585 0.0
5.777300000000031 0.5216200000000017 0.0
5.814049999999619 0.5237099999999782 0.0
5.5016749999995 0.5059449999999718 0.0
5.538424999999775 0.5080349999999872 0.0
5.575174999999278 0.510124999999959 0.0
5.611924999999736 0.512214999999985 0.0
5.648674999999146 0.5143049999999515 0.0
5.685424999999798 0.5163949999999885 0.0
5.72217499999939 0.5184849999999652 0.0
5.75892499999942 0.5205749999999669 0.0
5.795674999999661 0.5226649999999806 0.0
5.832424999999808 0.524754999999989 0.0
6.185899999999967 0.5686699999999937 0.0
6.223200000000103 0.5760400000000205 0.0
6.26049999999988 0.5834099999999763 0.0
6.297799999999683 0.5907799999999372 0.0
6.335099999999809 0.5981499999999621 0.0
6.372399999999617 0.6055199999999242 0.0
6.409700000000087 0.6128900000000171 0.0
6.446999999999897 0.6202599999999795 0.0
6.484300000000033 0.6276300000000062 0.0
6.167249999999825 0.5649849999999655 0.0
6.204549999999946 0.5723549999999894 0.0
6.241849999999991 0.5797249999999983 0.0
6.279149999999877 0.5870949999999756 0.0
6.31644999999975 0.5944649999999506 0.0
6.353749999999861 0.6018349999999725 0.0
6.39104999999963 0.6092049999999268 0.0
6.428349999999996 0.6165749999999992 0.0
6.465650000000085 0.6239450000000167 0.0
6.502950000000051 0.6313150000000098 0.0
6.845363636363626 0.7294272727272689 0.0
6.880427272727252 0.7424545454545377 0.0
6.915490909090877 0.7554818181818067 0.0
6.950554545454437 0.7685090909090506 0.0
6.985618181818142 0.7815363636363493 0.0
7.020681818181658 0.7945636363635772 0.0
7.055745454545396 0.8075909090908875 0.0
7.090809090908994 0.8206181818181463 0.0
7.125872727272663 0.8336454545454308 0.0
7.160936363636331 0.8466727272727155 0.0
6.827831818181717 0.722913636363599 0.0
6.862895454545457 0.7359409090909105 0.0
6.897959090908904 0.7489681818181124 0.0
6.933022727272875 0.7619954545455098 0.0
6.968086363636176 0.7750227272726576 0.0
7.003150000000026 0.7880500000000098 0.0
7.038213636363714 0.8010772727273018 0.0
7.073277272726912 0.8141045454544118 0.0
7.108340909090766 0.8271318181817655 0.0
7.143404545454475 0.840159090909065 0.0
7.178468181818199 0.8531863636363705 0.0
7.50692 0.9860500000000001 0.0
7.545039999999653 0.987599999999986 0.0
7.583159999999308 0.989149999999972 0.0
7.621279999999653 0.990699999999986 0.0
7.659399999999653 0.992249999999986 0.0
7.697519999999654 0.993799999999986 0.0
7.735639999999999 0.9953500000000001 0.0
7.773759999999654 0.9968999999999859 0.0
7.811879999999999 0.99845 0.0
7.487859999999879 0.9852749999999952 0.0
7.525979999999826 0.9868249999999931 0.0
7.56409999999948 0.988374999999979 0.0
7.602219999999563 0.9899249999999824 0.0
7.640339999999797 0.9914749999999919 0.0
7.678459999999714 0.9930249999999885 0.0
7.716579999999662 0.9945749999999863 0.0
7.754699999999789 0.9961249999999915 0.0
7.792819999999827 0.997674999999993 0.0
7.83094000000006 0.9992250000000025 0.0
8.189361702128089 1.0 0.0
8.228723404256021 1.0 0.0
8.268085106383511 1.0 0.0
8.307446808511347 1.0 0.0
8.346808510638837 1.0 0.0
8.386170212766556 1.0 0.0
8.425531914894163 1.0 0.0
8.464893617021728 1.0 0.0
8.504255319149491 1.0 0.0
8.543617021276981 1.0 0.0
8.582978723404818 1.0 0.0
8.622340425532308 1.0 0.0
8.661702127660144 1.0 0.0
[...]
POINT_DATA 10611
VECTORS vector double
0.0 0.0 0.0
0.0 0.0 0.0
0.0 0.0 0.0
0.0 0.0 0.0
0.0 0.0 0.0
0.0 0.0 0.0
0.0 0.0 0.0
0.0 0.0 0.0
0.0 0.0 0.0
0.0 0.0 0.0
0.0 0.0 0.0
0.0 0.0 0.0
0.0 0.0 0.0
0.0 0.0 0.0
0.0 0.0 0.0
0.0 0.0 0.0
0.0 0.0 0.0
0.0 0.0 0.0
0.0 0.0 0.0
0.0 0.0 0.0
0.0 0.0 0.0
0.0 0.0 0.0
0.0 0.0 0.0
0.0 0.0 0.0
0.0 0.0 0.0
0.0 0.0 0.0
0.0 0.0 0.0
0.0 0.0 0.0
0.0 0.0 0.0
0.0 0.0 0.0
0.0 0.0 0.0
0.0 0.0 0.0
1.5 -1.59544565231 0.0
1.07292900354 1.5652126152 0.0
0.0 0.0 0.0
0.0 0.0 0.0
0.0 0.0 0.0
0.0 0.0 0.0
0.0 0.0 0.0
0.0 0.0 0.0
0.0 0.0 0.0
0.0 0.0 0.0
0.0 0.0 0.0
0.0 0.0 0.0
0.0 0.0 0.0
0.0 0.0 0.0
0.0 0.0 0.0
0.0 0.0 0.0
0.0 0.0 0.0
0.0 0.0 0.0
0.0 0.0 0.0
0.0 0.0 0.0
0.0 0.0 0.0
0.0 0.0 0.0
0.0 0.0 0.0
0.0 0.0 0.0
0.0 0.0 0.0
0.0 0.0 0.0
0.0 0.0 0.0
0.0 0.0 0.0
0.0 0.0 0.0
0.0 0.0 0.0
0.0 0.0 0.0
0.0 0.0 0.0
0.0 0.0 0.0
0.0 0.0 0.0
0.0 0.0 0.0
0.0 0.0 0.0
0.0 0.0 0.0
0.0 0.0 0.0
0.0 0.0 0.0
0.0 0.0 0.0
0.0 0.0 0.0
0.0 0.0 0.0
0.0 0.0 0.0
0.0 0.0 0.0
0.0 0.0 0.0
0.0 0.0 0.0
0.0 0.0 0.0
0.0 0.0 0.0
0.0 0.0 0.0
0.0 0.0 0.0
0.0 0.0 0.0
0.0 0.0 0.0
0.0 0.0 0.0
0.0 0.0 0.0
0.0 0.0 0.0
0.0 0.0 0.0
0.0 0.0 0.0
0.0 0.0 0.0
0.0 0.0 0.0
0.0 0.0 0.0
0.0 0.0 0.0
0.0 0.0 0.0
0.0 0.0 0.0
0.0 0.0 0.0
0.0 0.0 0.0
0.0 0.0 0.0
0.0 0.0 0.0
0.0 0.0 0.0
0.0 0.0 0.0
0.0 0.0 0.0
0.0 0.0 0.0
0.0 0.0 0.0
0.0 0.0 0.0
0.0 0.0 0.0
0.0 0.0 0.0
0.0 0.0 0.0
0.0 0.0 0.0
0.0 0.0 0.0
0.0 0.0 0.0
0.0 0.0 0.0
0.0 0.0 0.0
0.0 0.0 0.0
0.0 0.0 0.0
0.0 0.0 0.0
0.0 0.0 0.0
0.0 0.0 0.0
0.0 0.0 0.0
0.0 0.0 0.0
0.0 0.0 0.0
0.0 0.0 0.0
0.0 0.0 0.0
0.0 0.0 0.0
0.0 0.0 0.0
0.0 0.0 0.0
0.0 0.0 0.0
0.0 0.0 0.0
0.0 0.0 0.0
0.0 0.0 0.0
0.0 0.0 0.0
0.0 0.0 0.0
0.0 0.0 0.0
0.0 0.0 0.0
0.0 0.0 0.0
0.0 0.0 0.0
0.0 0.0 0.0
0.0 0.0 0.0
0.0 0.0 0.0
0.0 0.0 0.0
0.0 0.0 0.0
0.0 0.0 0.0
0.0 0.0 0.0
0.0 0.0 0.0
0.0 0.0 0.0
0.0 0.0 0.0
0.0 0.0 0.0
0.0 0.0 0.0
0.0 0.0 0.0
0.0 0.0 0.0
0.0 0.0 0.0
0.0 0.0 0.0
0.0 0.0 0.0
0.0 0.0 0.0
0.0 0.0 0.0
0.0 0.0 0.0
0.0 0.0 0.0
0.0 0.0 0.0
0.0 0.0 0.0
0.0 0.0 0.0
0.0 0.0 0.0
0.0 0.0 0.0
0.0 0.0 0.0
0.0 0.0 0.0
0.0 0.0 0.0
0.0 0.0 0.0
0.0 0.0 0.0
0.0 0.0 0.0
0.0 0.0 0.0
0.0 0.0 0.0
0.0 0.0 0.0
0.0 0.0 0.0
0.0 0.0 0.0
0.0 0.0 0.0
0.0 0.0 0.0
0.0 0.0 0.0
0.0 0.0 0.0
0.0 0.0 0.0
0.0 0.0 0.0
0.0 0.0 0.0
0.0 0.0 0.0
0.0 0.0 0.0
0.0 0.0 0.0
0.0 0.0 0.0
0.0 0.0 0.0
0.0 0.0 0.0
0.0 0.0 0.0
0.0 0.0 0.0
0.0 0.0 0.0
0.0 0.0 0.0
0.0 0.0 0.0
0.0 0.0 0.0
0.0 0.0 0.0
0.0 0.0 0.0
0.0 0.0 0.0
0.0 0.0 0.0
0.0 0.0 0.0
0.0 0.0 0.0
0.0 0.0 0.0
0.0 0.0 0.0
0.0 0.0 0.0
0.0 0.0 0.0
0.0 0.0 0.0
0.0 0.0 0.0
0.0 0.0 0.0
0.0 0.0 0.0
0.0 0.0 0.0
0.0 0.0 0.0
0.0 0.0 0.0
0.0 0.0 0.0
0.0 0.0 0.0
0.0 0.0 0.0
0.0 0.0 0.0
0.0 0.0 0.0
0.0 0.0 0.0
0.0 0.0 0.0
0.0 0.0 0.0
0.0 0.0 0.0
0.0 0.0 0.0
0.0 0.0 0.0
0.0 0.0 0.0
0.0 0.0 0.0
0.0 0.0 0.0
0.0 0.0 0.0
0.0 0.0 0.0
0.0 0.0 0.0
0.0 0.0 0.0
0.0 0.0 0.0
0.0 0.0 0.0
0.0 0.0 0.0
0.0 0.0 0.0
0.0 0.0 0.0
0.0 0.0 0.0
0.0 0.0 0.0
0.0 0.0 0.0
0.0 0.0 0.0
0.0 0.0 0.0
0.0 0.0 0.0
0.0 0.0 0.0
0.0 0.0 0.0
0.0 0.0 0.0
0.0 0.0 0.0
0.0 0.0 0.0
0.0 0.0 0.0
0.0 0.0 0.0
0.0 0.0 0.0
0.0 0.0 0.0
0.0 0.0 0.0
0.0 0.0 0.0
0.0 0.0 0.0
0.0 0.0 0.0
0.0 0.0 0.0
0.0 0.0 0.0
0.0 0.0 0.0
0.0 0.0 0.0
0.0 0.0 0.0
0.0 0.0 0.0
0.0 0.0 0.0
0.0 0.0 0.0
0.0 0.0 0.0
0.0 0.0 0.0
0.0 0.0 0.0
0.0 0.0 0.0
0.0 0.0 0.0
0.0 0.0 0.0
0.0 0.0 0.0
0.0 0.0 0.0
0.0 0.0 0.0
0.0 0.0 0.0
0.0 0.0 0.0
0.0 0.0 0.0
0.0 0.0 0.0
0.0 0.0 0.0
0.0 0.0 0.0
0.0 0.0 0.0
0.0 0.0 0.0
0.0 0.0 0.0
0.0 0.0 0.0
0.0 0.0 0.0
0.0 0.0 0.0
0.0 0.0 0.0
0.0 0.0 0.0
0.0 0.0 0.0
0.0 0.0 0.0
0.0 0.0 0.0
0.0 0.0 0.0
0.0 0.0 0.0
0.0 0.0 0.0
0.0 0.0 0.0
0.0 0.0 0.0
0.0 0.0 0.0
0.0 0.0 0.0
0.0 0.0 0.0
0.0 0.0 0.0
0.0 0.0 0.0
0.0 0.0 0.0
0.0 0.0 0.0
0.0 0.0 0.0
0.0 0.0 0.0
0.0 0.0 0.0
0.0 0.0 0.0
0.0 0.0 0.0
0.0 0.0 0.0
0.0 0.0 0.0
0.0 0.0 0.0
0.0 0.0 0.0
0.0 0.0 0.0
0.0 0.0 0.0
0.0 0.0 0.0
0.0 0.0 0.0
0.0 0.0 0.0
0.0 0.0 0.0
0.0 0.0 0.0
0.0 0.0 0.0
0.0 0.0 0.0
0.0 0.0 0.0
0.0 0.0 0.0
0.0 0.0 0.0
0.0 0.0 0.0
0.0 0.0 0.0
0.0 0.0 0.0
0.0 0.0 0.0
0.0 0.0 0.0
0.0 0.0 0.0
0.0 0.0 0.0
0.0 0.0 0.0
0.0 0.0 0.0
0.0 0.0 0.0
0.0 0.0 0.0
0.0 0.0 0.0
0.0 0.0 0.0
0.0 0.0 0.0
0.0 0.0 0.0
0.0 0.0 0.0
0.0 0.0 0.0
0.0 0.0 0.0
0.0 0.0 0.0
0.0 0.0 0.0
0.0 0.0 0.0
0.0 0.0 0.0
0.0 0.0 0.0
0.0 0.0 0.0
0.0 0.0 0.0
0.0 0.0 0.0
0.0 0.0 0.0
0.0 0.0 0.0
0.0 0.0 0.0
0.0 0.0 0.0
0.0 0.0 0.0
0.0 0.0 0.0
0.0 0.0 0.0
0.0 0.0 0.0
0.0 0.0 0.0
0.0 0.0 0.0
0.0 0.0 0.0
0.0 0.0 0.0
0.0 0.0 0.0
0.0 0.0 0.0
0.0 0.0 0.0
0.0 0.0 0.0
0.0 0.0 0.0
0.0 0.0 0.0
0.0 0.0 0.0
0.0 0.0 0.0
0.0 0.0 0.0
0.0 0.0 0.0
0.0 0.0 0.0
0.0 0.0 0.0
0.0 0.0 0.0
0.0 0.0 0.0
0.0 0.0 0.0
0.0 0.0 0.0
0.0 0.0 0.0
0.0 0.0 0.0
0.0 0.0 0.0
0.0 0.0 0.0
0.0 0.0 0.0
0.0 0.0 0.0
0.0 0.0 0.0
0.0 0.0 0.0
0.0 0.0 0.0
0.0 0.0 0.0
0.0 0.0 0.0
0.0 0.0 0.0
0.0 0.0 0.0
0.0 0.0 0.0
0.0 0.0 0.0
0.0 0.0 0.0
0.0 0.0 0.0
0.0 0.0 0.0
0.0 0.0 0.0
0.0 0.0 0.0
0.0 0.0 0.0
0.0 0.0 0.0
0.0 0.0 0.0
0.0 0.0 0.0
0.0 0.0 0.0
0.0 0.0 0.0
0.0 0.0 0.0
0.0 0.0 0.0
0.0 0.0 0.0
0.0 0.0 0.0
0.0 0.0 0.0
0.0 0.0 0.0
0.0 0.0 0.0
0.0 0.0 0.0
0.0 0.0 0.0
0.0 0.0 0.0
0.0 0.0 0.0
0.0 0.0 0.0
0.0 0.0 0.0
0.0 0.0 0.0
0.0 0.0 0.0
0.0 0.0 0.0
0.0 0.0 0.0
0.0 0.0 0.0
0.0 0.0 0.0
0.0 0.0 0.0
0.0 0.0 0.0
0.0 0.0 0.0
0.0 0.0 0.0
0.0 0.0 0.0
0.0 0.0 0.0
0.0 0.0 0.0
0.0 0.0 0.0
0.0 0.0 0.0
0.0 0.0 0.0
0.0 0.0 0.0
0.0 0.0 0.0
0.0 0.0 0.0
0.0 0.0 0.0
0.0 0.0 0.0
0.0 0.0 0.0
0.0 0.0 0.0
0.0 0.0 0.0
0.0 0.0 0.0
0.0 0.0 0.0
0.0 0.0 0.0
0.0 0.0 0.0
0.0 0.0 0.0
0.0 0.0 0.0
0.0 0.0 0.0
0.0 0.0 0.0
0.0 0.0 0.0
0.0 0.0 0.0
0.0 0.0 0.0
0.0 0.0 0.0
0.0 0.0 0.0
0.0 0.0 0.0
0.0 0.0 0.0
0.0 0.0 0.0
0.0 0.0 0.0
0.0 0.0 0.0
0.0 0.0 0.0
0.0 0.0 0.0
0.0 0.0 0.0
0.0 0.0 0.0
0.0 0.0 0.0
0.0 0.0 0.0
0.0 0.0 0.0
0.0 0.0 0.0
0.0 0.0 0.0
0.0 0.0 0.0
0.0 0.0 0.0
0.0 0.0 0.0
0.0 0.0 0.0
0.0 0.0 0.0
0.0 0.0 0.0
0.0 0.0 0.0
0.0 0.0 0.0
0.0 0.0 0.0
0.0 0.0 0.0
0.0 0.0 0.0
0.0 0.0 0.0
0.0 0.0 0.0
0.0 0.0 0.0
0.0 0.0 0.0
0.0 0.0 0.0
0.0 0.0 0.0
0.0 0.0 0.0
0.0 0.0 0.0
0.0 0.0 0.0
0.0 0.0 0.0
0.0 0.0 0.0
0.0 0.0 0.0
0.0 0.0 0.0
0.0 0.0 0.0
0.0 0.0 0.0
0.0 0.0 0.0
0.0 0.0 0.0
0.0 0.0 0.0
0.0 0.0 0.0
0.0 0.0 0.0
0.0 0.0 0.0
0.0 0.0 0.0
0.0 0.0 0.0
0.0 0.0 0.0
0.0 0.0 0.0
0.0 0.0 0.0
0.0 0.0 0.0
0.0 0.0 0.0
0.0 0.0 0.0
0.0 0.0 0.0
0.0 0.0 0.0
0.0 0.0 0.0
0.0 0.0 0.0
0.0 0.0 0.0
0.0 0.0 0.0
0.0 0.0 0.0
0.0 0.0 0.0
0.0 0.0 0.0
0.0 0.0 0.0
0.0 0.0 0.0
0.0 0.0 0.0
0.0 0.0 0.0
0.0 0.0 0.0
0.0 0.0 0.0
0.0 0.0 0.0
0.0 0.0 0.0
0.0 0.0 0.0
0.0 0.0 0.0
0.0 0.0 0.0
0.0 0.0 0.0
0.0 0.0 0.0
0.0 0.0 0.0
0.0 0.0 0.0
0.0 0.0 0.0
0.0 0.0 0.0
0.0 0.0 0.0
0.0 0.0 0.0
0.0 0.0 0.0
0.0 0.0 0.0
0.0 0.0 0.0
0.0 0.0 0.0
0.0 0.0 0.0
0.0 0.0 0.0
0.0 0.0 0.0
0.0 0.0 0.0
0.0 0.0 0.0
0.0 0.0 0.0
0.0 0.0 0.0
0.0 0.0 0.0
0.0 0.0 0.0
0.0 0.0 0.0
0.0 0.0 0.0
0.0 0.0 0.0
0.0 0.0 0.0
0.0 0.0 0.0
0.0 0.0 0.0
0.0 0.0 0.0
0.0 0.0 0.0
0.0 0.0 0.0
0.0 0.0 0.0
0.0 0.0 0.0
0.0 0.0 0.0
0.0 0.0 0.0
0.0 0.0 0.0
0.0 0.0 0.0
0.0 0.0 0.0
0.0 0.0 0.0
0.0 0.0 0.0
0.0 0.0 0.0
0.0 0.0 0.0
0.0 0.0 0.0
0.0 0.0 0.0
0.0 0.0 0.0
0.0 0.0 0.0
0.0 0.0 0.0
0.0 0.0 0.0
0.0 0.0 0.0
0.0 0.0 0.0
0.0 0.0 0.0
0.0 0.0 0.0
0.0 0.0 0.0
0.0 0.0 0.0
0.0 0.0 0.0
0.0 0.0 0.0
0.0 0.0 0.0
0.0 0.0 0.0
1.14443214522 0.419136792886 0.0
0.944356629591 -0.567760293363 0.0
0.918272416332 0.45039328289 0.0
0.781927337099 -0.152636919606 0.0
1.63213218031 -0.0201725921736 0.0
0.707913366191 0.351755964524 0.0
0.974228102828 -0.474010654856 0.0
1.09598378277 0.159170588078 0.0
0.914339166637 -0.0911947274453 0.0
1.16711570415 0.57524023966 0.0
0.717811180079 0.00201875198095 0.0
0.825796121737 -0.524307365564 0.0
1.07631160592 -0.21970061954 0.0
1.14943041521 0.381420951725 0.0
1.16502357081 -0.571989569489 0.0
1.22449949181 0.115168576033 0.0
1.44934239403 0.31916972563 0.0
1.0986206468 0.0380980708667 0.0
1.54751340188 -0.336277820224 0.0
1.56258322509 0.386664370809 0.0
1.13450269378 0.184489543312 0.0
1.70119725477 -0.525145984831 0.0
1.60823090797 0.459345844452 0.0
1.18848979051 0.14917321455 0.0
1.43816053134 -0.231317196093 0.0
1.59698965416 0.356983909681 0.0
1.82444301377 -0.438661891026 0.0
1.38303194718 0.519271856172 0.0
1.91531679113 -0.466181862588 0.0
1.56155484094 -0.0614102666987 0.0
1.71153522186 -0.493067247713 0.0
2.73793618839 -0.203499415638 0.0
2.63709420987 -0.353584220136 0.0
1.83835632389 0.899858908769 0.0
1.92237872631 -1.18458363371 0.0
2.80331800922 -0.411256073111 0.0
2.89225453264 -0.295559522708 0.0
2.97490057689 0.445188696113 0.0
2.84773067529 0.571805316234 0.0
2.6889037804 0.141375525076 0.0
2.58602546716 -0.65768813109 0.0
3.8066143716 0.626062664166 0.0
2.73882647651 -0.300555529348 0.0
3.42039731149 -0.811896645223 0.0
3.19609033797 0.721119372841 0.0
2.80567235662 -0.166071278189 0.0
3.36232848416 0.012768928958 0.0
2.96462916934 -0.322473416675 0.0
3.01695133712 -0.639569998842 0.0
3.16017642751 0.820977898094 0.0
2.68142233727 -0.572455209172 0.0
3.93853317572 -1.4088095326 0.0
4.59750146393 0.0140878097573 0.0
3.10797734445 0.695257756803 0.0
3.41559263258 -0.323421580676 0.0
3.56885785009 0.872851945529 0.0
2.78503668572 0.391041231453 0.0
3.82312095397 -0.594866271283 0.0
2.58923427266 0.655987859547 0.0
2.68863088131 -0.136806414401 0.0
2.84397396536 -0.573728130587 0.0
2.97600401951 -0.449136146456 0.0
2.89542899703 0.292861417444 0.0
2.80923000782 0.408988206484 0.0
1.93052149499 1.18457205087 0.0
1.84311149963 -0.888779469761 0.0
2.63298533315 0.363290188452 0.0
2.70625153957 0.220907696889 0.0
1.68857255056 0.53311815047 0.0
1.54295204339 0.202990963882 0.0
1.42542539516 -0.391684750436 0.0
2.65069449717 0.103333312365 0.0
1.25485914895 0.267246113802 0.0
1.47511031347 -0.537022783403 0.0
1.53776084859 0.524817598393 0.0
1.22120802484 -0.3221922591 0.0
1.63347091617 -0.505830226995 0.0
1.67122639598 0.545264199029 0.0
1.1878717485 -0.0706543568329 0.0
1.47041759548 -0.0744614998472 0.0
1.22037390488 0.0698911738617 0.0
1.11138977509 0.589117346754 0.0
1.03327359915 -0.645482928359 0.0
1.11478237784 -0.0377970034785 0.0
1.29523316748 -0.0242645345421 0.0
1.36501802875 -0.229335884428 0.0
1.30225805829 0.276226819336 0.0
1.2203880862 0.0901685759101 0.0
1.1127518431 0.499913145527 0.0
0.981284259047 -0.283394643352 0.0
1.37185117037 -0.190864987111 0.0
1.3151308682 -0.0519864760655 0.0
1.055681975 -0.0225112026134 0.0
1.63150017872 -0.0596141195969 0.0
1.41317432702 -0.324909891147 0.0
1.23951060954 0.0611276413563 0.0
1.24915941123 0.514694578126 0.0
0.846349712083 0.372236301546 0.0
0.973787225228 -0.323825524674 0.0
0.242046631472 0.0357371609219 0.0
0.0504285661668 0.0183395071884 0.0
0.379160845673 -0.0154098448202 0.0
0.201395569345 -0.0327147955055 0.0
0.30471478018 0.243978506587 0.0
0.420383178187 -0.255388297861 0.0
0.140091641692 -0.0363762525511 0.0
0.369708351283 -0.0100926886482 0.0
0.385628379578 -0.025771593345 0.0
0.391185315486 -0.0522445315671 0.0
0.0425264629032 0.0533968628904 0.0
0.157308055562 0.00777905688278 0.0
0.33027103329 0.0951448249749 0.0
0.373729859526 0.0110366452208 0.0
0.0966530526867 0.0103263621656 0.0
0.503743366213 0.0151792023285 0.0
0.362711871123 -0.116723787471 0.0
0.344505522816 -0.0494749710294 0.0
0.355009371364 -0.0424964424048 0.0
0.506043353857 -0.052490923046 0.0
0.585508506671 -0.0617850514386 0.0
0.345338467178 -0.0412279176582 0.0
0.650400648056 -0.0520305434963 0.0
0.696943207953 -0.0920420928332 0.0
0.534482353348 0.0155633006411 0.0
0.505843223075 0.00945185093657 0.0
0.166312544523 -0.0444235535093 0.0
0.757894548853 -0.0152692275029 0.0
0.176104953343 -0.076117352301 0.0
0.550651243511 0.0517425621618 0.0
0.672500237931 0.0699288347452 0.0
0.874782349335 0.103981929201 0.0
0.204853892082 0.13505257638 0.0
0.741778324452 0.0363496709872 0.0
0.129586749376 0.0122420380834 0.0
0.856754983378 0.0519190502625 0.0
0.83267566297 0.0474036838762 0.0
1.17891210746 -0.0653530120798 0.0
0.835158940154 -0.143060484963 0.0
0.569887525255 -0.152555176588 0.0
0.724139099088 -0.00494003989214 0.0
1.09807177019 0.109283975225 0.0
0.336885440257 0.174050018551 0.0
0.549260511041 0.00846444667393 0.0
0.996499885904 -0.00201047797551 0.0
0.882385540935 -0.10073317685 0.0
0.804988889439 0.106744825799 0.0
0.457383939664 0.175737194804 0.0
0.635332241258 0.149107878663 0.0
1.04851954346 0.0173259043335 0.0
0.485927874489 0.108771172061 0.0
0.605029211305 0.137060766369 0.0
0.842305206515 0.00683807490297 0.0
1.4387009502 -0.194521953487 0.0
1.05396030515 0.0405826990198 0.0
1.10176726928 -0.00986390314348 0.0
0.588710132633 -0.00436237732215 0.0
0.343323850377 -0.180525872579 0.0
1.08683514058 -0.111126603818 0.0
0.725130801243 0.00575592559467 0.0
0.568533876766 0.152108069851 0.0
0.834670299673 0.143176448216 0.0
1.18003135452 0.0658334451863 0.0
0.83542965628 -0.0474333718638 0.0
0.861397367769 -0.0517478872402 0.0
0.131188528745 -0.0138466638562 0.0
0.739376360179 -0.0389116082673 0.0
0.215355750712 -0.138561106831 0.0
0.856801872932 -0.110504343388 0.0
0.648080164721 -0.0723499448844 0.0
0.548411535844 0.00902594762686 0.0
0.807980229691 0.385584570882 0.0
0.674399488932 -0.411319552314 0.0
0.365457216423 0.0693863010129 0.0
0.612266076807 0.0599813954805 0.0
0.227785867804 0.0689945096985 0.0
0.517226985716 0.0507577429488 0.0
0.650218672412 0.00692100711272 0.0
0.38598334055 -0.0183812254 0.0
0.508787130521 0.0155956370479 0.0
0.396692124371 0.0859617360074 0.0
0.328205151144 -0.00497969045758 0.0
0.0485224664519 0.0151327036751 0.0
0.378619975562 0.045907585581 0.0
0.40442364778 -0.0188206786204 0.0
0.343984236809 0.00268794093928 0.0
0.623590801373 -0.0220570032984 0.0
0.423819748512 -0.0499483353938 0.0
0.474782591785 -0.0851658618741 0.0
0.225587760513 -0.0161703975823 0.0
0.475176674001 0.0336186923384 0.0
0.419492123475 0.0357519312163 0.0
0.58698728343 0.0237171613238 0.0
0.584916680346 0.0785687067982 0.0
0.151458294547 0.111724391212 0.0
0.481911609795 0.035609881858 0.0
0.478879990979 -0.0855395396473 0.0
0.258909439435 -0.049571637129 0.0
0.104858396089 -0.0423848599508 0.0
0.242571377729 -0.0271552508432 0.0
1.485 -0.0544754612318 0.0
1.44 0.0251353549993 0.0
1.365 0.00109983268364 0.0
1.26 0.0200752329861 0.0
1.125 0.013653028741 0.0
0.960000000002 -0.00170336182292 0.0
0.765000000002 0.00180121346901 0.0
0.540000000001 0.0118630419424 0.0
0.285000000001 -0.0324165647388 0.0
1.49625 -0.129476563698 0.0
1.46625 0.00324253492605 0.0
1.40625 0.0184207355378 0.0
1.31625 0.0111234266617 0.0
1.19625 0.0263394785598 0.0
1.04625 0.0102476960194 0.0
0.866250000002 -0.000272730370372 0.0
0.656250000001 0.0124932826484 0.0
0.416250000001 -0.0183655483559 0.0
0.14625 -0.0985571024897 0.0
1.01341609368 0.0267501840651 0.0
1.16858134917 -0.00210603270911 0.0
1.14738719329 2.90407825391e-05 0.0
1.15338379915 2.41450535583e-05 0.0
1.15155239198 2.87105015604e-05 0.0
1.1494016696 -6.9617576511e-05 0.0
1.14372067219 0.000175866291862 0.0
1.13610376802 0.000205153476538 0.0
1.12837100954 0.000307658344812 0.0
1.11141003638 -1.55326721047e-05 0.0
1.08266770495 -0.000882239180475 0.0
1.03075368516 -3.30012163283e-05 0.0
0.94763277388 0.00315295112437 0.0
0.776413404145 0.0454281049114 0.0
0.904004983666 0.244308949874 0.0
1.56183622025 0.0905260933996 0.0
1.05320060239 0.00510371777828 0.0
1.15026182787 -0.00100901476279 0.0
1.15290785975 -0.000279679102599 0.0
1.1535860241 -9.34426223445e-05 0.0
1.15032588897 9.22093107308e-05 0.0
1.14609157953 1.19933906419e-05 0.0
1.14045652921 0.000245650974501 0.0
1.13262255883 6.32048318761e-05 0.0
1.12028502316 0.000437323230746 0.0
1.09804639731 5.38339163012e-05 0.0
1.05902219055 -0.00179604479941 0.0
0.986169479365 0.00320249368752 0.0
0.840783495568 0.0153016084146 0.0
0.403238577937 -0.0376254415521 0.0
-1.7092125634 0.0480773668701 0.0
1.18734931755 0.111297165443 0.0
1.15477619162 0.00588082971598 0.0
1.14590197153 0.020808827211 0.0
1.46214824787 -0.327539935444 0.0
1.42447520434 0.36363471779 0.0
1.15102267834 -0.180970017036 0.0
1.22778711013 -0.141444776121 0.0
1.23642533695 0.0992980049736 0.0
1.09887276708 -0.0564695473403 0.0
1.99248575411 -0.164521901215 0.0
1.99338057734 0.161634112144 0.0
1.34683120292 0.121827842748 0.0
1.14787236378 -0.00394200178292 0.0
1.33504906314 -0.138917297541 0.0
2.52611640885 -0.176660005573 0.0
2.53613098614 0.174673937411 0.0
1.07852944719 0.000187751703237 0.0
2.57164018173 0.0779772686233 0.0
1.11286877001 0.0481547198959 0.0
1.04175419695 0.277607591319 0.0
1.17430159208 0.0290082872364 0.0
1.45814427655 -0.265777892493 0.0
1.41439997881 0.237940459963 0.0
1.15555848463 -0.00100963062171 0.0
0.996004202461 -0.359572355444 0.0
1.80044082301 -0.650557340364 0.0
1.83857917368 0.67539181472 0.0
1.11929240364 0.00819812296061 0.0
1.07720773573 -0.101615457288 0.0
0.666478687451 -0.157720136246 0.0
0.65748909192 0.0809982586247 0.0
1.3310339896 0.13544325826 0.0
1.35254413303 -0.15660314362 0.0
2.44296302611 0.0683971534283 0.0
2.43387328155 -0.0681332449603 0.0
1.15168797667 0.00017209030851 0.0
1.04421566872 0.0715661433048 0.0
1.13492213114 -0.0669393304116 0.0
1.08948574633 -0.657541633328 0.0
1.0464260585 0.610844982157 0.0
1.16230300596 0.0965912412554 0.0
3.35674065412 -0.211089842273 0.0
3.35881564249 0.215592509445 0.0
1.31982259814 -0.0791922226272 0.0
1.32945303409 0.0694720480128 0.0
1.17513886808 0.030840949646 0.0
1.03008219541 -0.526974855631 0.0
1.05851091974 0.410937319238 0.0
1.15311736661 -0.0758285190245 0.0
1.06536878424 -0.0395853533759 0.0
1.53831355935 0.192045070919 0.0
1.16875711244 -0.0255287945708 0.0
1.15387806316 -0.00517775037264 0.0
1.15928756469 0.0137002594335 0.0
1.23535673781 -0.0932144645345 0.0
1.11479883235 0.0298771889417 0.0
1.07338327576 0.0650454909684 0.0
1.42274180478 -0.347659429124 0.0
1.37358730892 -0.13026431712 0.0
1.4907855643 0.144152205249 0.0
1.51267002442 -0.146492277771 0.0
1.28371225726 0.0728214607139 0.0
2.2522876812 -0.890910241139 0.0
2.25242717748 0.889757512717 0.0
1.12015858832 -0.0375745211074 0.0
1.36691790632 0.116598886951 0.0
3.30983725981 0.647959659186 0.0
3.30954932896 -0.648464795492 0.0
3.01717000287 -0.737474537666 0.0
2.7934091948 -0.725761396204 0.0
2.78940678281 0.752005030947 0.0
1.10771473787 0.00952574257776 0.0
1.10016287066 -0.0139718109511 0.0
3.81404941359 -0.260808038514 0.0
3.54204104189 0.383296367925 0.0
1.15446066927 0.0114155381921 0.0
1.25139882909 0.363218494572 0.0
1.24777567689 -0.367904586116 0.0
1.11636990727 -0.693709990287 0.0
1.11489615772 0.692111020109 0.0
1.12092821803 0.102619681769 0.0
1.00161545321 -0.131891891163 0.0
1.57274275158 -0.115882159159 0.0
1.16822462164 0.014053305681 0.0
1.44383025596 0.661038906996 0.0
1.44995482324 -0.660258718567 0.0
3.48215261534 0.629999224457 0.0
1.47200774406 0.524819408377 0.0
1.46075370394 -0.553243540198 0.0
1.0597488536 -0.0798183858228 0.0
1.0510588718 0.0160067246463 0.0
1.52798493093 -0.559992961697 0.0
1.42105089704 0.466984871176 0.0
1.14419646783 0.00777915380382 0.0
1.54785428871 0.132500729475 0.0
0.265311281156 -0.295017530147 0.0
0.253542015655 0.232446076156 0.0
1.26478450337 0.23708099979 0.0
1.33363377821 0.0561632428871 0.0
1.31340019199 -0.077491389044 0.0
1.04652379706 -0.00966516026317 0.0
1.38684689201 1.16717871625 0.0
1.15021374839 0.00270061647246 0.0
1.1885115588 0.539975112926 0.0
1.70563354113 0.25685982769 0.0
1.6954331827 -0.240268684755 0.0
1.16259841647 0.00660714400635 0.0
1.05556568803 0.0139380733766 0.0
1.18792488312 0.0322044952299 0.0
1.14184629369 -0.0367011065829 0.0
1.15647929534 0.0568916041903 0.0
1.04068497143 -0.0102901621767 0.0
1.43953954139 0.203700658212 0.0
0.875262541089 0.105503535933 0.0
0.569992173976 0.319552855105 0.0
2.38801687096 0.892859878339 0.0
2.13069989094 0.288293920716 0.0
2.37824183962 -0.854038111997 0.0
2.12618417832 -0.285835561592 0.0
0.74869678173 -0.300669180653 0.0
1.10047438213 -0.00836792476016 0.0
1.14048657331 0.00573323653981 0.0
0.777211374512 0.28393907971 0.0
1.65025741685 -0.476854232483 0.0
1.12945737789 0.0280614315369 0.0
1.12236448973 -0.107065144012 0.0
1.28524582928 -0.0870145576615 0.0
1.57023122336 -0.0692708841924 0.0
1.11915269029 0.0987370156615 0.0
1.43959223328 0.513805233465 0.0
1.21664379959 0.0506790600955 0.0