# vtk DataFile Version 2.0
2D Simulation Python
ASCII
DATASET UNSTRUCTURED_GRID
FIELD FieldData 1
NODES 1 2 int
10611 5098

POINTS 10611 double
0.0 1.0 0.0
1.85 1.0 0.0
2.15 1.0 0.0
2.5312 0.9845000000000002 0.0
2.804 0.8597000000000001 0.0
3.1897 0.7164000000000001 0.0
3.4784 0.6349999999999998 0.0
3.8514 0.5613000000000001 0.0
4.1492 0.5257999999999998 0.0
4.5167 0.5049000000000001 0.0
4.8167 0.5003000000000002 0.0
5.1833 0.5003000000000002 0.0
5.4833 0.5049000000000001 0.0
5.8508 0.5257999999999998 0.0
6.1486 0.5613000000000001 0.0
6.5216 0.6349999999999998 0.0
6.8103 0.7164000000000001 0.0
7.196 0.8597000000000001 0.0
7.4688 0.9845000000000002 0.0
7.85 1.0 0.0
8.15 1.0 0.0
10.0 1.0 0.0
2.0 0.8500000000000001 0.0
2.604294 0.7837869999999998 0.0
3.292593 0.5288279999999999 0.0
3.982247 0.3922810000000001 0.0
4.6644 0.3515969999999999 0.0
5.3356 0.3515969999999999 0.0
6.017753 0.3922810000000001 0.0
6.707407 0.5288279999999999 0.0
7.395706 0.7837869999999998 0.0
8.0 0.8500000000000001 0.0
0.0 0.0 0.0
10.0 0.0 0.0
0.09589869952291516 1.0 0.0
0.1888147635033504 1.0 0.0
0.2788409054415558 1.0 0.0
0.3660670333996566 1.0 0.0
0.4505802302878947 1.0 0.0
0.5324648790931192 1.0 0.0
0.6118027156217198 1.0 0.0
0.6886729728356462 1.0 0.0
0.7631523848471844 1.0 0.0
0.8353153174851218 1.0 0.0
0.9052338217649879 1.0 0.0
0.9729776980408794 1.0 0.0
1.038614580849525 1.0 0.0
1.102210010843471 1.0 0.0
1.163827479442682 1.0 0.0
1.223528508355988 1.0 0.0
1.281372692526642 1.0 0.0
1.337417785230084 1.0 0.0
1.391719743967992 1.0 0.0
1.444332799787133 1.0 0.0
1.495309459666087 1.0 0.0
1.544700643890327 1.0 0.0
1.592555642113107 1.0 0.0
1.638922222094626 1.0 0.0
1.683846722920012 1.0 0.0
1.727373960837219 1.0 0.0
1.769547395111623 1.0 0.0
1.810409141995569 1.0 0.0
0.04794934976146541 1.0 0.0
0.1423567315131277 1.0 0.0
0.2338278344724776 1.0 0.0
0.322453969420604 1.0 0.0
0.4083236318437693 1.0 0.0
0.4915225546905059 1.0 0.0
0.5721337973574282 1.0 0.0
0.6502378442286719 1.0 0.0
0.7259126788414144 1.0 0.0
0.7992338511661451 1.0 0.0
0.8702745696250607 1.0 0.0
0.9391057599028793 1.0 0.0
1.005796139445209 1.0 0.0
1.070412295846505 1.0 0.0
1.133018745143076 1.0 0.0
1.19367799389933 1.0 0.0
1.252450600441303 1.0 0.0
1.309395238878363 1.0 0.0
1.364568764599029 1.0 0.0
1.418026271877568 1.0 0.0
1.46982112972661 1.0 0.0
1.520005051778207 1.0 0.0
1.568628143001706 1.0 0.0
1.615738932103834 1.0 0.0
1.661384472507319 1.0 0.0
1.705610341878616 1.0 0.0
1.748460677974425 1.0 0.0
1.789978268553592 1.0 0.0
1.830204570997791 1.0 0.0
2.188119999999948 0.9984500000000022 0.0
2.226239999999895 0.9969000000000042 0.0
2.264359999999671 0.9953500000000134 0.0
2.302479999999619 0.9938000000000156 0.0
2.340599999999567 0.9922500000000177 0.0
2.378719999999689 0.9907000000000128 0.0
2.416839999999636 0.989150000000015 0.0
2.454959999999585 0.987600000000017 0.0
2.493079999999706 0.9860500000000121 0.0
2.169060000000055 0.9992249999999978 0.0
2.20718000000007 0.9976749999999972 0.0
2.245299999999551 0.9961250000000182 0.0
2.283419999999693 0.9945750000000125 0.0
2.321539999999803 0.993025000000008 0.0
2.359659999999664 0.9914750000000138 0.0
2.39777999999961 0.9899250000000159 0.0
2.435899999999312 0.9883750000000281 0.0
2.474019999999563 0.9868250000000179 0.0
2.512140000000032 0.9852749999999988 0.0
2.839063636363584 0.8466727272727468 0.0
2.874127272727092 0.8336454545455219 0.0
2.909190909090677 0.8206181818182683 0.0
2.944254545454222 0.8075909090910295 0.0
2.97931818181763 0.7945636363638415 0.0
3.014381818181257 0.7815363636365724 0.0
3.049445454545112 0.7685090909092184 0.0
3.084509090908891 0.7554818181818926 0.0
3.119572727272518 0.7424545454546234 0.0
3.154636363636221 0.729427272727326 0.0
2.821531818181787 0.8531863636363756 0.0
2.856595454545446 0.8401590909090944 0.0
2.891659090908758 0.827131818181942 0.0
2.926722727272589 0.8141045454545969 0.0
2.961786363635887 0.80107727272745 0.0
2.996849999999454 0.7880500000002032 0.0
3.031913636363022 0.7750227272729556 0.0
3.066977272726973 0.761995454545566 0.0
3.102040909090645 0.7489681818182802 0.0
3.13710454545425 0.7359409090910191 0.0
3.172168181818027 0.7229136363636943 0.0
3.515699999999767 0.6276300000000459 0.0
3.552999999999703 0.6202600000000585 0.0
3.59029999999978 0.6128900000000433 0.0
3.627599999999699 0.6055200000000595 0.0
3.664899999999474 0.5981500000001038 0.0
3.702199999999584 0.5907800000000822 0.0
3.739499999999687 0.5834100000000619 0.0
3.776799999999796 0.5760400000000403 0.0
3.814099999999899 0.56867000000002 0.0
3.49704999999981 0.6313150000000375 0.0
3.534349999999738 0.6239450000000516 0.0
3.571649999999759 0.6165750000000475 0.0
3.608949999999585 0.6092050000000819 0.0
3.646249999999436 0.6018350000001114 0.0
3.68354999999952 0.5944650000000948 0.0
3.720849999999593 0.5870950000000805 0.0
3.758149999999735 0.5797250000000524 0.0
3.795449999999833 0.5723550000000331 0.0
3.832749999999933 0.5649850000000134 0.0
4.185950000000035 0.5237099999999979 0.0
4.22269999999962 0.5216200000000215 0.0
4.259449999999689 0.5195300000000176 0.0
4.296199999999274 0.5174400000000412 0.0
4.332949999999307 0.5153500000000395 0.0
4.369699999999686 0.5132600000000178 0.0
4.406449999999271 0.5111700000000414 0.0
4.443200000000032 0.5090799999999982 0.0
4.47994999999962 0.5069900000000217 0.0
4.167574999999501 0.5247550000000282 0.0
4.204324999999775 0.5226650000000127 0.0
4.241074999999278 0.520575000000041 0.0
4.277824999999736 0.518485000000015 0.0
4.314574999999147 0.5163950000000485 0.0
4.351324999999798 0.5143050000000114 0.0
4.38807499999939 0.5122150000000347 0.0
4.42482499999942 0.510125000000033 0.0
4.461574999999661 0.5080350000000193 0.0
4.498324999999809 0.505945000000011 0.0
4.85335999999993 0.5003000000000002 0.0
4.890019999999688 0.5003000000000002 0.0
4.926679999999445 0.5003000000000002 0.0
4.963339999999202 0.5003000000000002 0.0
4.99999999999948 0.5003000000000002 0.0
5.036659999999757 0.5003000000000002 0.0
5.073319999999861 0.5003000000000002 0.0
5.109979999999966 0.5003000000000002 0.0
5.14664000000007 0.5003000000000002 0.0
4.835029999999882 0.5003000000000002 0.0
4.871689999999809 0.5003000000000002 0.0
4.908349999999566 0.5003000000000002 0.0
4.945009999999323 0.5003000000000002 0.0
4.98166999999934 0.5003000000000002 0.0
5.018329999999701 0.5003000000000002 0.0
5.054990000000056 0.5003000000000002 0.0
5.091650000000078 0.5003000000000002 0.0
5.128310000000018 0.5003000000000002 0.0
5.164970000000035 0.5003000000000002 0.0
5.520050000000034 0.506990000000002 0.0
5.556799999999619 0.5090799999999784 0.0
5.593549999999689 0.5111699999999824 0.0
5.630299999999274 0.5132599999999587 0.0
5.667049999999306 0.5153499999999605 0.0
5.703799999999686 0.5174399999999821 0.0
5.740549999999271 0.5195299999999585 0.0
5.777300000000031 0.5216200000000017 0.0
5.814049999999619 0.5237099999999782 0.0
5.5016749999995 0.5059449999999718 0.0
5.538424999999775 0.5080349999999872 0.0
5.575174999999278 0.510124999999959 0.0
5.611924999999736 0.512214999999985 0.0
5.648674999999146 0.5143049999999515 0.0
5.685424999999798 0.5163949999999885 0.0
5.72217499999939 0.5184849999999652 0.0
5.75892499999942 0.5205749999999669 0.0
5.795674999999661 0.5226649999999806 0.0
5.832424999999808 0.524754999999989 0.0
6.185899999999967 0.5686699999999937 0.0
6.223200000000103 0.5760400000000205 0.0
6.26049999999988 0.5834099999999763 0.0
6.297799999999683 0.5907799999999372 0.0
6.335099999999809 0.5981499999999621 0.0
6.372399999999617 0.6055199999999242 0.0
6.409700000000087 0.6128900000000171 0.0
6.446999999999897 0.6202599999999795 0.0
6.484300000000033 0.6276300000000062 0.0
6.167249999999825 0.5649849999999655 0.0
6.204549999999946 0.5723549999999894 0.0
6.241849999999991 0.5797249999999983 0.0
6.279149999999877 0.5870949999999756 0.0
6.31644999999975 0.5944649999999506 0.0
6.353749999999861 0.6018349999999725 0.0
6.39104999999963 0.6092049999999268 0.0
6.428349999999996 0.6165749999999992 0.0
6.465650000000085 0.6239450000000167 0.0
6.502950000000051 0.6313150000000098 0.0
6.845363636363626 0.7294272727272689 0.0
6.880427272727252 0.7424545454545377 0.0
6.915490909090877 0.7554818181818067 0.0
6.950554545454437 0.7685090909090506 0.0
6.985618181818142 0.7815363636363493 0.0
7.020681818181658 0.7945636363635772 0.0
7.055745454545396 0.8075909090908875 0.0
7.090809090908994 0.8206181818181463 0.0
7.125872727272663 0.8336454545454308 0.0
7.160936363636331 0.8466727272727155 0.0
6.827831818181717 0.722913636363599 0.0
6.862895454545457 0.7359409090909105 0.0
6.897959090908904 0.7489681818181124 0.0
6.933022727272875 0.7619954545455098 0.0
6.968086363636176 0.7750227272726576 0.0
7.003150000000026 0.7880500000000098 0.0
7.038213636363714 0.8010772727273018 0.0
7.073277272726912 0.8141045454544118 0.0
7.108340909090766 0.8271318181817655 0.0
7.143404545454475 0.840159090909065 0.0
7.178468181818199 0.8531863636363705 0.0
7.50692 0.9860500000000001 0.0
7.545039999999653 0.987599999999986 0.0
7.583159999999308 0.989149999999972 0.0
7.621279999999653 0.990699999999986 0.0
7.659399999999653 0.992249999999986 0.0
7.697519999999654 0.993799999999986 0.0
7.735639999999999 0.9953500000000001 0.0
7.773759999999654 0.9968999999999859 0.0
7.811879999999999 0.99845 0.0
7.487859999999879 0.9852749999999952 0.0
7.525979999999826 0.9868249999999931 0.0
7.56409999999948 0.988374999999979 0.0
7.602219999999563 0.9899249999999824 0.0
7.640339999999797 0.9914749999999919 0.0
7.678459999999714 0.9930249999999885 0.0
7.716579999999662 0.9945749999999863 0.0
7.754699999999789 0.9961249999999915 0.0
7.792819999999827 0.997674999999993 0.0
7.83094000000006 0.9992250000000025 0.0
8.189361702128089 1.0 0.0
8.228723404256021 1.0 0.0
8.268085106383511 1.0 0.0
8.307446808511347 1.0 0.0
8.346808510638837 1.0 0.0
8.386170212766556 1.0 0.0
8.425531914894163 1.0 0.0
8.464893617021728 1.0 0.0
8.504255319149491 1.0 0.0
8.543617021276981 1.0 0.0
8.582978723404818 1.0 0.0
8.622340425532308 1.0 0.0
8.661702127660144 1.0 0.0
[...]
POINT_DATA 10611
VECTORS vector double
0.0 0.0 0.0
0.0 0.0 0.0
0.0 0.0 0.0
0.0 0.0 0.0
0.0 0.0 0.0
0.0 0.0 0.0
0.0 0.0 0.0
0.0 0.0 0.0
0.0 0.0 0.0
0.0 0.0 0.0
0.0 0.0 0.0
0.0 0.0 0.0
0.0 0.0 0.0
0.0 0.0 0.0
0.0 0.0 0.0
0.0 0.0 0.0
0.0 0.0 0.0
0.0 0.0 0.0
0.0 0.0 0.0
0.0 0.0 0.0
0.0 0.0 0.0
0.0 0.0 0.0
0.0 0.0 0.0
0.0 0.0 0.0
0.0 0.0 0.0
0.0 0.0 0.0
0.0 0.0 0.0
0.0 0.0 0.0
0.0 0.0 0.0
0.0 0.0 0.0
0.0 0.0 0.0
0.0 0.0 0.0
1.5 -1.82537626724 0.0
1.39843954102 1.85127105388 0.0
0.0 0.0 0.0
0.0 0.0 0.0
0.0 0.0 0.0
0.0 0.0 0.0
0.0 0.0 0.0
0.0 0.0 0.0
0.0 0.0 0.0
0.0 0.0 0.0
0.0 0.0 0.0
0.0 0.0 0.0
0.0 0.0 0.0
0.0 0.0 0.0
0.0 0.0 0.0
0.0 0.0 0.0
0.0 0.0 0.0
0.0 0.0 0.0
0.0 0.0 0.0
0.0 0.0 0.0
0.0 0.0 0.0
0.0 0.0 0.0
0.0 0.0 0.0
0.0 0.0 0.0
0.0 0.0 0.0
0.0 0.0 0.0
0.0 0.0 0.0
0.0 0.0 0.0
0.0 0.0 0.0
0.0 0.0 0.0
0.0 0.0 0.0
0.0 0.0 0.0
0.0 0.0 0.0
0.0 0.0 0.0
0.0 0.0 0.0
0.0 0.0 0.0
0.0 0.0 0.0
0.0 0.0 0.0
0.0 0.0 0.0
0.0 0.0 0.0
0.0 0.0 0.0
0.0 0.0 0.0
0.0 0.0 0.0
0.0 0.0 0.0
0.0 0.0 0.0
0.0 0.0 0.0
0.0 0.0 0.0
0.0 0.0 0.0
0.0 0.0 0.0
0.0 0.0 0.0
0.0 0.0 0.0
0.0 0.0 0.0
0.0 0.0 0.0
0.0 0.0 0.0
0.0 0.0 0.0
0.0 0.0 0.0
0.0 0.0 0.0
0.0 0.0 0.0
0.0 0.0 0.0
0.0 0.0 0.0
0.0 0.0 0.0
0.0 0.0 0.0
0.0 0.0 0.0
0.0 0.0 0.0
0.0 0.0 0.0
0.0 0.0 0.0
0.0 0.0 0.0
0.0 0.0 0.0
0.0 0.0 0.0
0.0 0.0 0.0
0.0 0.0 0.0
0.0 0.0 0.0
0.0 0.0 0.0
0.0 0.0 0.0
0.0 0.0 0.0
0.0 0.0 0.0
0.0 0.0 0.0
0.0 0.0 0.0
0.0 0.0 0.0
0.0 0.0 0.0
0.0 0.0 0.0
0.0 0.0 0.0
0.0 0.0 0.0
0.0 0.0 0.0
0.0 0.0 0.0
0.0 0.0 0.0
0.0 0.0 0.0
0.0 0.0 0.0
0.0 0.0 0.0
0.0 0.0 0.0
0.0 0.0 0.0
0.0 0.0 0.0
0.0 0.0 0.0
0.0 0.0 0.0
0.0 0.0 0.0
0.0 0.0 0.0
0.0 0.0 0.0
0.0 0.0 0.0
0.0 0.0 0.0
0.0 0.0 0.0
0.0 0.0 0.0
0.0 0.0 0.0
0.0 0.0 0.0
0.0 0.0 0.0
0.0 0.0 0.0
0.0 0.0 0.0
0.0 0.0 0.0
0.0 0.0 0.0
0.0 0.0 0.0
0.0 0.0 0.0
0.0 0.0 0.0
0.0 0.0 0.0
0.0 0.0 0.0
0.0 0.0 0.0
0.0 0.0 0.0
0.0 0.0 0.0
0.0 0.0 0.0
0.0 0.0 0.0
0.0 0.0 0.0
0.0 0.0 0.0
0.0 0.0 0.0
0.0 0.0 0.0
0.0 0.0 0.0
0.0 0.0 0.0
0.0 0.0 0.0
0.0 0.0 0.0
0.0 0.0 0.0
0.0 0.0 0.0
0.0 0.0 0.0
0.0 0.0 0.0
0.0 0.0 0.0
0.0 0.0 0.0
0.0 0.0 0.0
0.0 0.0 0.0
0.0 0.0 0.0
0.0 0.0 0.0
0.0 0.0 0.0
0.0 0.0 0.0
0.0 0.0 0.0
0.0 0.0 0.0
0.0 0.0 0.0
0.0 0.0 0.0
0.0 0.0 0.0
0.0 0.0 0.0
0.0 0.0 0.0
0.0 0.0 0.0
0.0 0.0 0.0
0.0 0.0 0.0
0.0 0.0 0.0
0.0 0.0 0.0
0.0 0.0 0.0
0.0 0.0 0.0
0.0 0.0 0.0
0.0 0.0 0.0
0.0 0.0 0.0
0.0 0.0 0.0
0.0 0.0 0.0
0.0 0.0 0.0
0.0 0.0 0.0
0.0 0.0 0.0
0.0 0.0 0.0
0.0 0.0 0.0
0.0 0.0 0.0
0.0 0.0 0.0
0.0 0.0 0.0
0.0 0.0 0.0
0.0 0.0 0.0
0.0 0.0 0.0
0.0 0.0 0.0
0.0 0.0 0.0
0.0 0.0 0.0
0.0 0.0 0.0
0.0 0.0 0.0
0.0 0.0 0.0
0.0 0.0 0.0
0.0 0.0 0.0
0.0 0.0 0.0
0.0 0.0 0.0
0.0 0.0 0.0
0.0 0.0 0.0
0.0 0.0 0.0
0.0 0.0 0.0
0.0 0.0 0.0
0.0 0.0 0.0
0.0 0.0 0.0
0.0 0.0 0.0
0.0 0.0 0.0
0.0 0.0 0.0
0.0 0.0 0.0
0.0 0.0 0.0
0.0 0.0 0.0
0.0 0.0 0.0
0.0 0.0 0.0
0.0 0.0 0.0
0.0 0.0 0.0
0.0 0.0 0.0
0.0 0.0 0.0
0.0 0.0 0.0
0.0 0.0 0.0
0.0 0.0 0.0
0.0 0.0 0.0
0.0 0.0 0.0
0.0 0.0 0.0
0.0 0.0 0.0
0.0 0.0 0.0
0.0 0.0 0.0
0.0 0.0 0.0
0.0 0.0 0.0
0.0 0.0 0.0
0.0 0.0 0.0
0.0 0.0 0.0
0.0 0.0 0.0
0.0 0.0 0.0
0.0 0.0 0.0
0.0 0.0 0.0
0.0 0.0 0.0
0.0 0.0 0.0
0.0 0.0 0.0
0.0 0.0 0.0
0.0 0.0 0.0
0.0 0.0 0.0
0.0 0.0 0.0
0.0 0.0 0.0
0.0 0.0 0.0
0.0 0.0 0.0
0.0 0.0 0.0
0.0 0.0 0.0
0.0 0.0 0.0
0.0 0.0 0.0
0.0 0.0 0.0
0.0 0.0 0.0
0.0 0.0 0.0
0.0 0.0 0.0
0.0 0.0 0.0
0.0 0.0 0.0
0.0 0.0 0.0
0.0 0.0 0.0
0.0 0.0 0.0
0.0 0.0 0.0
0.0 0.0 0.0
0.0 0.0 0.0
0.0 0.0 0.0
0.0 0.0 0.0
0.0 0.0 0.0
0.0 0.0 0.0
0.0 0.0 0.0
0.0 0.0 0.0
0.0 0.0 0.0
0.0 0.0 0.0
0.0 0.0 0.0
0.0 0.0 0.0
0.0 0.0 0.0
0.0 0.0 0.0
0.0 0.0 0.0
0.0 0.0 0.0
0.0 0.0 0.0
0.0 0.0 0.0
0.0 0.0 0.0
0.0 0.0 0.0
0.0 0.0 0.0
0.0 0.0 0.0
0.0 0.0 0.0
0.0 0.0 0.0
0.0 0.0 0.0
0.0 0.0 0.0
0.0 0.0 0.0
0.0 0.0 0.0
0.0 0.0 0.0
0.0 0.0 0.0
0.0 0.0 0.0
0.0 0.0 0.0
0.0 0.0 0.0
0.0 0.0 0.0
0.0 0.0 0.0
0.0 0.0 0.0
0.0 0.0 0.0
0.0 0.0 0.0
0.0 0.0 0.0
0.0 0.0 0.0
0.0 0.0 0.0
0.0 0.0 0.0
0.0 0.0 0.0
0.0 0.0 0.0
0.0 0.0 0.0
0.0 0.0 0.0
0.0 0.0 0.0
0.0 0.0 0.0
0.0 0.0 0.0
0.0 0.0 0.0
0.0 0.0 0.0
0.0 0.0 0.0
0.0 0.0 0.0
0.0 0.0 0.0
0.0 0.0 0.0
0.0 0.0 0.0
0.0 0.0 0.0
0.0 0.0 0.0
0.0 0.0 0.0
0.0 0.0 0.0
0.0 0.0 0.0
0.0 0.0 0.0
0.0 0.0 0.0
0.0 0.0 0.0
0.0 0.0 0.0
0.0 0.0 0.0
0.0 0.0 0.0
0.0 0.0 0.0
0.0 0.0 0.0
0.0 0.0 0.0
0.0 0.0 0.0
0.0 0.0 0.0
0.0 0.0 0.0
0.0 0.0 0.0
0.0 0.0 0.0
0.0 0.0 0.0
0.0 0.0 0.0
0.0 0.0 0.0
0.0 0.0 0.0
0.0 0.0 0.0
0.0 0.0 0.0
0.0 0.0 0.0
0.0 0.0 0.0
0.0 0.0 0.0
0.0 0.0 0.0
0.0 0.0 0.0
0.0 0.0 0.0
0.0 0.0 0.0
0.0 0.0 0.0
0.0 0.0 0.0
0.0 0.0 0.0
0.0 0.0 0.0
0.0 0.0 0.0
0.0 0.0 0.0
0.0 0.0 0.0
0.0 0.0 0.0
0.0 0.0 0.0
0.0 0.0 0.0
0.0 0.0 0.0
0.0 0.0 0.0
0.0 0.0 0.0
0.0 0.0 0.0
0.0 0.0 0.0
0.0 0.0 0.0
0.0 0.0 0.0
0.0 0.0 0.0
0.0 0.0 0.0
0.0 0.0 0.0
0.0 0.0 0.0
0.0 0.0 0.0
0.0 0.0 0.0
0.0 0.0 0.0
0.0 0.0 0.0
0.0 0.0 0.0
0.0 0.0 0.0
0.0 0.0 0.0
0.0 0.0 0.0
0.0 0.0 0.0
0.0 0.0 0.0
0.0 0.0 0.0
0.0 0.0 0.0
0.0 0.0 0.0
0.0 0.0 0.0
0.0 0.0 0.0
0.0 0.0 0.0
0.0 0.0 0.0
0.0 0.0 0.0
0.0 0.0 0.0
0.0 0.0 0.0
0.0 0.0 0.0
0.0 0.0 0.0
0.0 0.0 0.0
0.0 0.0 0.0
0.0 0.0 0.0
0.0 0.0 0.0
0.0 0.0 0.0
0.0 0.0 0.0
0.0 0.0 0.0
0.0 0.0 0.0
0.0 0.0 0.0
0.0 0.0 0.0
0.0 0.0 0.0
0.0 0.0 0.0
0.0 0.0 0.0
0.0 0.0 0.0
0.0 0.0 0.0
0.0 0.0 0.0
0.0 0.0 0.0
0.0 0.0 0.0
0.0 0.0 0.0
0.0 0.0 0.0
0.0 0.0 0.0
0.0 0.0 0.0
0.0 0.0 0.0
0.0 0.0 0.0
0.0 0.0 0.0
0.0 0.0 0.0
0.0 0.0 0.0
0.0 0.0 0.0
0.0 0.0 0.0
0.0 0.0 0.0
0.0 0.0 0.0
0.0 0.0 0.0
0.0 0.0 0.0
0.0 0.0 0.0
0.0 0.0 0.0
0.0 0.0 0.0
0.0 0.0 0.0
0.0 0.0 0.0
0.0 0.0 0.0
0.0 0.0 0.0
0.0 0.0 0.0
0.0 0.0 0.0
0.0 0.0 0.0
0.0 0.0 0.0
0.0 0.0 0.0
0.0 0.0 0.0
0.0 0.0 0.0
0.0 0.0 0.0
0.0 0.0 0.0
0.0 0.0 0.0
0.0 0.0 0.0
0.0 0.0 0.0
0.0 0.0 0.0
0.0 0.0 0.0
0.0 0.0 0.0
0.0 0.0 0.0
0.0 0.0 0.0
0.0 0.0 0.0
0.0 0.0 0.0
0.0 0.0 0.0
0.0 0.0 0.0
0.0 0.0 0.0
0.0 0.0 0.0
0.0 0.0 0.0
0.0 0.0 0.0
0.0 0.0 0.0
0.0 0.0 0.0
0.0 0.0 0.0
0.0 0.0 0.0
0.0 0.0 0.0
0.0 0.0 0.0
0.0 0.0 0.0
0.0 0.0 0.0
0.0 0.0 0.0
0.0 0.0 0.0
0.0 0.0 0.0
0.0 0.0 0.0
0.0 0.0 0.0
0.0 0.0 0.0
0.0 0.0 0.0
0.0 0.0 0.0
0.0 0.0 0.0
0.0 0.0 0.0
0.0 0.0 0.0
0.0 0.0 0.0
0.0 0.0 0.0
0.0 0.0 0.0
0.0 0.0 0.0
0.0 0.0 0.0
0.0 0.0 0.0
0.0 0.0 0.0
0.0 0.0 0.0
0.0 0.0 0.0
0.0 0.0 0.0
0.0 0.0 0.0
0.0 0.0 0.0
0.0 0.0 0.0
0.0 0.0 0.0
0.0 0.0 0.0
0.0 0.0 0.0
0.0 0.0 0.0
0.0 0.0 0.0
0.0 0.0 0.0
0.0 0.0 0.0
0.0 0.0 0.0
0.0 0.0 0.0
0.0 0.0 0.0
0.0 0.0 0.0
0.0 0.0 0.0
0.0 0.0 0.0
0.0 0.0 0.0
0.0 0.0 0.0
0.0 0.0 0.0
0.0 0.0 0.0
0.0 0.0 0.0
0.0 0.0 0.0
0.0 0.0 0.0
0.0 0.0 0.0
0.0 0.0 0.0
0.0 0.0 0.0
0.0 0.0 0.0
0.0 0.0 0.0
0.0 0.0 0.0
0.0 0.0 0.0
0.0 0.0 0.0
0.0 0.0 0.0
0.0 0.0 0.0
0.0 0.0 0.0
0.0 0.0 0.0
0.0 0.0 0.0
0.0 0.0 0.0
0.0 0.0 0.0
0.0 0.0 0.0
0.0 0.0 0.0
0.0 0.0 0.0
0.0 0.0 0.0
0.0 0.0 0.0
0.0 0.0 0.0
0.0 0.0 0.0
0.0 0.0 0.0
0.0 0.0 0.0
0.0 0.0 0.0
0.0 0.0 0.0
0.0 0.0 0.0
0.0 0.0 0.0
0.0 0.0 0.0
0.0 0.0 0.0
0.0 0.0 0.0
0.0 0.0 0.0
0.0 0.0 0.0
0.0 0.0 0.0
0.0 0.0 0.0
0.0 0.0 0.0
0.0 0.0 0.0
0.0 0.0 0.0
0.0 0.0 0.0
0.0 0.0 0.0
0.0 0.0 0.0
0.0 0.0 0.0
0.0 0.0 0.0
0.0 0.0 0.0
0.0 0.0 0.0
0.0 0.0 0.0
0.0 0.0 0.0
0.0 0.0 0.0
0.0 0.0 0.0
0.0 0.0 0.0
0.0 0.0 0.0
0.0 0.0 0.0
0.0 0.0 0.0
0.0 0.0 0.0
0.0 0.0 0.0
0.0 0.0 0.0
0.0 0.0 0.0
0.0 0.0 0.0
0.0 0.0 0.0
0.0 0.0 0.0
1.77410540882 0.0453048251927 0.0
1.49028457851 -0.150582955062 0.0
1.33641554733 0.163346413818 0.0
1.20403769658 -0.171384553216 0.0
2.03735923315 0.13776617769 0.0
1.0856258427 0.208353882673 0.0
1.44323259728 -0.0842706692126 0.0
1.41967456546 0.105563132514 0.0
1.14425764028 -0.0146344598627 0.0
1.62063812909 0.224730999178 0.0
1.35632494029 -0.134185367385 0.0
1.35223557465 -0.185269146498 0.0
1.41415576899 -0.110137585631 0.0
1.58164789843 0.0856811062437 0.0
1.50373853656 -0.165005699561 0.0
1.35202824295 0.102614029952 0.0
1.65018157304 0.217530527411 0.0
1.25713881166 0.0349052455348 0.0
1.56949150201 -0.0289725096082 0.0
1.59062361375 0.177138508972 0.0
1.25600805683 0.0719361079566 0.0
1.72818722642 -0.10220325586 0.0
1.62737469117 0.191814695012 0.0
1.29939755388 -0.0100821315877 0.0
1.6284052316 -0.130174214234 0.0
1.86875279958 0.112978469657 0.0
2.0161053082 -0.125232984191 0.0
1.63291176147 0.139969259317 0.0
2.28678585501 -0.201869719443 0.0
1.6441061607 -0.0725377557347 0.0
1.77916127559 -0.203592018964 0.0
2.70496356668 -0.254150469678 0.0
2.67254564888 -0.373205301009 0.0
2.20500805674 0.270416248064 0.0
2.29388703092 -0.462638987294 0.0
2.65152224117 -0.15067402362 0.0
2.55622546722 -0.112016083883 0.0
2.73384155423 0.120877473727 0.0
2.90081637659 0.162175776295 0.0
2.80451072686 0.131201398419 0.0
2.59602542934 -0.0542939859815 0.0
3.75900145525 0.0776900419742 0.0
3.00625071002 -0.328673844864 0.0
3.37943762656 -0.260207716893 0.0
3.22568484437 0.215197351825 0.0
2.88584460591 -0.132386543019 0.0
3.61840555417 -0.201971668118 0.0
3.30320040616 -0.228250520503 0.0
3.14819895035 -0.198305744269 0.0
3.32984959854 0.159155100571 0.0
3.0211319046 -0.220078330803 0.0
3.65597943129 -0.370924831766 0.0
3.66251232356 0.0519648412567 0.0
2.5663868739 0.08069898107 0.0
3.02336712951 -0.0735782288686 0.0
3.3637028422 0.262030217279 0.0
2.9726559448 0.331088885758 0.0
3.75155149024 -0.0813459310199 0.0
2.59369937875 0.0536251230032 0.0
2.80560768428 -0.130179827581 0.0
2.89766553999 -0.162119508742 0.0
2.7343396819 -0.121402853122 0.0
2.5556754847 0.11157576256 0.0
2.65104046451 0.150424236069 0.0
2.29407395542 0.463608377155 0.0
2.20232566397 -0.264886678753 0.0
2.67528526027 0.374876311166 0.0
2.6643527871 0.250928191087 0.0
1.78831073409 0.212219716991 0.0
1.6712209192 0.119285101372 0.0
1.59290583987 -0.278587720157 0.0
2.57053021459 0.0500241514852 0.0
1.37525426735 0.212883198616 0.0
1.66030247992 -0.211435762823 0.0
1.714139875 0.0997079570164 0.0
1.4789841253 -0.108193074159 0.0
1.69498299899 -0.127449871022 0.0
1.70441480106 0.171773148522 0.0
1.26006421135 -0.02849878333 0.0
1.58557154696 -0.0900381974487 0.0
1.39382902545 -0.0425483992919 0.0
1.75261598603 0.169675893286 0.0
1.60893095765 -0.202921652016 0.0
1.32405517916 0.0253670956029 0.0
1.46840885791 0.0377205623986 0.0
1.38431577704 -0.031519297807 0.0
1.33700133235 0.0960480890925 0.0
1.30465771856 0.0696028214122 0.0
1.36735605362 0.204284809859 0.0
1.21734658765 -0.0333833235925 0.0
1.43092339089 -0.084402316838 0.0
1.29427738073 -0.0441334991578 0.0
1.05771746225 0.0236778071016 0.0
1.67670540728 -0.165119980652 0.0
1.46739126631 -0.222041851945 0.0
1.2798635987 0.0287643186022 0.0
1.48630721016 0.201882245518 0.0
1.3418915323 0.127018186309 0.0
1.56387166395 0.111030024733 0.0
0.440537157093 0.057289317192 0.0
0.040746865025 0.00769487523728 0.0
0.692067047657 -0.040385827381 0.0
0.301810921085 -0.0115739979528 0.0
0.411216393496 0.320515662314 0.0
0.671286717227 -0.352562530062 0.0
0.143946198572 -0.0512489675679 0.0
0.558242082645 -0.0406695268603 0.0
0.495146837983 -0.00928865397391 0.0
0.669756025747 -0.053021173402 0.0
0.0798548465549 0.0656217320253 0.0
0.21553171385 0.0177228512763 0.0
0.508784022226 0.0704193468834 0.0
0.592934139382 0.0457899753643 0.0
0.0859749642229 0.0117463727707 0.0
0.693385675511 -0.0151534379035 0.0
0.5005524735 -0.109517972829 0.0
0.495977423685 -0.0316774981844 0.0
0.437637367833 -0.0571092449388 0.0
0.71803522868 -0.0526561195988 0.0
0.617297114205 -0.0164696532131 0.0
0.335029832084 -0.0608720965939 0.0
0.840501202185 -0.0596691789479 0.0
0.678815338445 -0.0378216883509 0.0
0.495686052441 0.00569538867945 0.0
0.663100030343 0.0217263537723 0.0
0.221717122926 -0.0480143341616 0.0
0.950070338509 -0.00331518532053 0.0
0.243768828789 -0.0882111819722 0.0
0.665834648677 0.0445957806725 0.0
0.752669985012 0.0453848115096 0.0
0.967956813727 0.0551594976604 0.0
0.377792022762 0.107894096596 0.0
0.956249786016 0.0750948271535 0.0
0.137153564987 0.0201159771156 0.0
1.0208247692 -0.0121113849928 0.0
0.93302330438 0.0434283517354 0.0
1.21396700357 -0.0559884000823 0.0
0.885289371147 -0.104613048114 0.0
0.618095079445 -0.112888074228 0.0
0.682535650683 -0.0505907886306 0.0
1.25882726737 0.0627553954236 0.0
0.345308375221 0.204106031436 0.0
0.753887312024 -0.0310176941273 0.0
1.15755377321 0.0198378473296 0.0
0.660713997416 -0.0387957595229 0.0
0.952270335518 0.0682835818627 0.0
0.55176841284 0.190864424719 0.0
0.698608199535 0.100907212032 0.0
1.22255230661 0.0492485352455 0.0
0.502150083384 0.132766327057 0.0
0.723828348518 0.0690915145946 0.0
0.993939374489 -0.0349108416493 0.0
1.63300460457 -0.0540109543427 0.0
1.02566852359 0.0255665038003 0.0
1.18674025167 -0.0288216688762 0.0
0.805753720461 0.0345236711604 0.0
0.343883725212 -0.203802958278 0.0
1.25133876081 -0.0633145182197 0.0
0.681469199894 0.0495145524747 0.0
0.61434770196 0.112675176815 0.0
0.884588455229 0.104221909311 0.0
1.21447950432 0.0563628693767 0.0
0.934248059945 -0.0434494551275 0.0
1.02316672702 0.0122945863743 0.0
0.141893902245 -0.0215829693717 0.0
0.95329227768 -0.0768648722821 0.0
0.37758451054 -0.106029906263 0.0
0.968033265994 -0.061348513354 0.0
0.74926523668 -0.0443362928003 0.0
0.555180336758 0.00475337691878 0.0
0.856025744974 0.390003096319 0.0
0.778407266989 -0.403014861995 0.0
0.446204761327 0.0460459854375 0.0
0.800926729195 0.070006662376 0.0
0.283326753352 0.0766532119678 0.0
0.568571280414 -0.00351389419169 0.0
0.800088053405 0.00337839081608 0.0
0.47289610987 0.0139007738728 0.0
0.650365084486 -0.00727302303769 0.0
0.55099191016 0.0826685361451 0.0
0.520479443917 0.0266111675625 0.0
-0.065330014692 0.0118907035117 0.0
0.583585069824 0.000187410147176 0.0
0.489298152254 -0.0163651055587 0.0
0.414826536611 0.00290606712339 0.0
0.753817267772 -0.0188032824571 0.0
0.529057011082 -0.0315387160679 0.0
0.576559163877 -0.0632304073913 0.0
0.289773891383 -0.013683306158 0.0
0.5723084205 0.00765935395258 0.0
0.54894214296 0.0379226347915 0.0
0.672212054597 0.02958272524 0.0
0.699000508818 0.0434953640288 0.0
0.273913167672 0.103854051417 0.0
0.607874717366 0.0222991019804 0.0
0.617860238609 -0.0749238340568 0.0
0.408292872882 -0.0176016739699 0.0
0.141061137553 -0.0355967713136 0.0
0.282399825805 -0.052224725223 0.0
1.485 -0.114612268555 0.0
1.44 -0.0207413203662 0.0
1.365 0.0239921504117 0.0
1.26 -0.00713258715367 0.0
1.125 0.0149466699801 0.0
0.960000000002 0.0266368948958 0.0
0.765000000002 0.0172253888912 0.0
0.540000000001 0.0157109185902 0.0
0.285000000001 0.021737503068 0.0
1.49625 -0.00844545828908 0.0
1.46625 0.0128955483949 0.0
1.40625 0.0068134857626 0.0
1.31625 0.0055493146418 0.0
1.19625 0.0213890568663 0.0
1.04625 0.017372112698 0.0
0.866250000002 0.0175733116992 0.0
0.656250000001 0.00880039213271 0.0
0.416250000001 0.0191240606974 0.0
0.14625 0.019510580789 0.0
0.760475732043 0.11280180883 0.0
0.942734268469 0.00645227918915 0.0
0.947003320034 0.00016455318696 0.0
0.949689821265 6.33735768854e-05 0.0
0.950197483532 8.87664178781e-05 0.0
0.95538669148 8.44183432554e-05 0.0
0.954464186358 0.000100699465226 0.0
0.951866564065 5.52343159003e-05 0.0
0.958488854587 3.07494491003e-05 0.0
0.955929327142 6.56102800046e-06 0.0
0.951152154255 -1.13949867168e-05 0.0
0.934691037051 9.11594525055e-05 0.0
0.932452479797 0.000442368865072 0.0
0.879658066865 -0.00458460146328 0.0
0.579302458325 -0.0347775924841 0.0
1.4940439876 -0.000275813778731 0.0
0.931055103249 -0.00260908916272 0.0
0.948338632414 0.00101589496087 0.0
0.950261292958 4.86576180712e-05 0.0
0.952928086525 -7.88426778385e-05 0.0
0.95221007614 -0.000104289146549 0.0
0.952166581564 -3.07183914105e-06 0.0
0.952662528241 -5.81230755166e-05 0.0
0.952283088918 -9.14638256637e-05 0.0
0.954634364347 1.78370858111e-05 0.0
0.945691597573 4.89542342264e-05 0.0
0.954012944611 9.40037728421e-06 0.0
0.956805181177 -0.000116301736536 0.0
0.958645955925 -0.000787176682855 0.0
0.919390958249 0.0160059953799 0.0
1.41846507604 -0.0142976379874 0.0
0.980934219306 0.0670072865535 0.0
0.956094203562 0.00124970033397 0.0
0.958899158448 0.0174478953171 0.0
1.19691120176 -0.241050380605 0.0
1.19657115445 0.244640161418 0.0
0.973258385527 -0.0828609723037 0.0
1.02599278338 -0.102057434411 0.0
1.02557343867 0.101662489488 0.0
0.950143817308 -0.0203347559641 0.0
1.58544561805 -0.167573426439 0.0
1.58556689128 0.167847142215 0.0
1.05466455432 0.0751424436751 0.0
0.953311823763 0.00545161376616 0.0
1.05618268123 -0.0789388645842 0.0
1.85097676397 0.0080013301402 0.0
1.84923807283 -0.00946731737643 0.0
0.945459704172 3.34649450179e-05 0.0
1.91502145501 0.0529800639087 0.0
0.937720692832 0.0362690364505 0.0
0.927626571228 0.14949498228 0.0
0.953502628423 0.000656787610267 0.0
1.1277202921 -0.17204509293 0.0
1.12672661906 0.174082352875 0.0
0.955174999464 0.0022069562541 0.0
0.913953257763 -0.163375529936 0.0
1.40752853196 -0.351133704349 0.0
1.42206799445 0.35054754837 0.0
0.94744822319 0.0106846068226 0.0
0.932348446392 -0.0421263626119 0.0
0.790514494143 0.020274147399 0.0
0.79116719324 -0.0194208738612 0.0
1.04838983584 0.0061287185604 0.0
1.04463893833 -0.00568544250515 0.0
1.67624618706 0.113988261223 0.0
1.67621108268 -0.113046865657 0.0
0.961660989615 0.00624774090476 0.0
0.907479016162 0.0589140544109 0.0
1.02474180189 -0.187612046704 0.0
1.08559944416 -0.452250532385 0.0
1.03628823225 0.408871924808 0.0
1.06593506963 0.154609320881 0.0
2.0906889564 -0.0627352527825 0.0
2.09137312786 0.0625153542044 0.0
1.07009592643 -0.0540118953471 0.0
1.07270572816 0.0528352149007 0.0
0.978750388296 0.0248312644944 0.0
0.953886395666 -0.264404852447 0.0
0.962619100397 0.244700533377 0.0
0.975976546023 -0.029865100202 0.0
0.939834726639 -0.0112638463414 0.0
1.12411411174 0.0995223142623 0.0
0.953195058607 0.00331896856542 0.0
0.951031179183 0.00150447558448 0.0
0.954248057303 -0.00359072394483 0.0
1.01769128751 -0.0451075528714 0.0
0.937451223843 0.0130072404544 0.0
0.937864911723 0.0177776354787 0.0
1.0793546574 -0.167613629843 0.0
1.10384382026 -0.0928622587395 0.0
1.19229100395 0.108217082319 0.0
1.18591387976 -0.112731700481 0.0
1.02185138349 0.0438809099808 0.0
1.76337139073 -0.423517984956 0.0
1.76342456687 0.423634093115 0.0
0.947122545504 0.00587766777645 0.0
1.10597775596 0.0942785465452 0.0
2.14128481312 0.246811994521 0.0
2.14125814871 -0.247375536474 0.0
2.08527688696 -0.245080817415 0.0
2.00282375507 -0.318420020965 0.0
2.0418727168 0.337112181282 0.0
0.954202889727 0.00834476487636 0.0
0.954721968152 -0.00816284928567 0.0
2.33053102087 -0.116868574372 0.0
2.33688518804 0.143288007334 0.0
0.955091422096 -0.000325546880007 0.0
1.3288291842 0.00443130371458 0.0
1.32880405935 -0.00445067197874 0.0
1.3084300697 -0.464646744876 0.0
1.30836861205 0.464757572322 0.0
0.952095532587 -0.000792877788546 0.0
0.899237325845 -0.0666584463806 0.0
1.16564767025 -0.151770614473 0.0
0.967368321946 0.00963311941437 0.0
1.53693841801 0.20608643848 0.0
1.53925455067 -0.202750312124 0.0
2.25981921745 0.212052414968 0.0
1.52116538816 0.373633752824 0.0
1.51935891771 -0.373027705817 0.0
0.93299884852 -0.0188311493202 0.0
0.918760990007 0.0248592413758 0.0
1.54778213488 -0.289134957443 0.0
1.5362390505 0.334636751539 0.0
0.958978432384 0.000566166085307 0.0
1.19578989303 0.169762085848 0.0
0.639148845984 -0.222434359513 0.0
0.62185640637 0.229428479843 0.0
1.01778922145 0.120009809937 0.0
1.05731935917 0.0621414434616 0.0
1.05830497054 -0.0629511127588 0.0
0.93584500027 -0.00454607203099 0.0
1.3084027029 0.625697485411 0.0
0.958294088238 0.00388138023214 0.0
1.01105889469 0.250430828759 0.0
1.31630915434 0.162280012889 0.0
1.30826722531 -0.15399681746 0.0
0.953432809288 0.00131357664379 0.0
0.959907121662 0.00291355476044 0.0
0.949174779005 0.00127204902328 0.0
0.958899322334 -0.013013297995 0.0
0.966872613408 0.0386088320022 0.0
0.946580420423 0.00623530939075 0.0
1.16650773851 0.167626999802 0.0
0.855163905794 0.0946589837996 0.0
0.789205938459 0.214993030224 0.0
1.67997710573 0.420375328146 0.0
1.5410256285 0.168900110962 0.0
1.67956100139 -0.420421108649 0.0
1.54151351321 -0.169478022081 0.0
0.900698446441 -0.346582469111 0.0
0.95379614741 -0.000433404742897 0.0
0.954429355043 0.0105357586156 0.0
0.912865158371 0.252200972441 0.0
1.18484765353 -0.257612020921 0.0
0.948021402263 0.0213964712542 0.0
0.959285964513 -0.046101719888 0.0
1.04638780031 -0.0492208526709 0.0
1.17388240017 -0.0550937828933 0.0