# vtk DataFile Version 2.0
2D Simulation Python
ASCII
DATASET UNSTRUCTURED_GRID
FIELD FieldData 1
NODES 1 2 int
2757 5098

POINTS 2757 double
0.0 1.0 0.0
1.85 1.0 0.0
2.15 1.0 0.0
2.5312 0.9845000000000002 0.0
2.804 0.8597000000000001 0.0
3.1897 0.7164000000000001 0.0
3.4784 0.6349999999999998 0.0
3.8514 0.5613000000000001 0.0
4.1492 0.5257999999999998 0.0
4.5167 0.5049000000000001 0.0
4.8167 0.5003000000000002 0.0
5.1833 0.5003000000000002 0.0
5.4833 0.5049000000000001 0.0
5.8508 0.5257999999999998 0.0
6.1486 0.5613000000000001 0.0
6.5216 0.6349999999999998 0.0
6.8103 0.7164000000000001 0.0
7.196 0.8597000000000001 0.0
7.4688 0.9845000000000002 0.0
7.85 1.0 0.0
8.15 1.0 0.0
10.0 1.0 0.0
2.0 0.8500000000000001 0.0
2.604294 0.7837869999999998 0.0
3.292593 0.5288279999999999 0.0
3.982247 0.3922810000000001 0.0
4.6644 0.3515969999999999 0.0
5.3356 0.3515969999999999 0.0
6.017753 0.3922810000000001 0.0
6.707407 0.5288279999999999 0.0
7.395706 0.7837869999999998 0.0
8.0 0.8500000000000001 0.0
0.0 0.0 0.0
10.0 0.0 0.0
0.09589869952291516 1.0 0.0
0.1888147635033504 1.0 0.0
0.2788409054415558 1.0 0.0
0.3660670333996566 1.0 0.0
0.4505802302878947 1.0 0.0
0.5324648790931192 1.0 0.0
0.6118027156217198 1.0 0.0
0.6886729728356462 1.0 0.0
0.7631523848471844 1.0 0.0
0.8353153174851218 1.0 0.0
0.9052338217649879 1.0 0.0
0.9729776980408794 1.0 0.0
1.038614580849525 1.0 0.0
1.102210010843471 1.0 0.0
1.163827479442682 1.0 0.0
1.223528508355988 1.0 0.0
1.281372692526642 1.0 0.0
1.337417785230084 1.0 0.0
1.391719743967992 1.0 0.0
1.444332799787133 1.0 0.0
1.495309459666087 1.0 0.0
1.544700643890327 1.0 0.0
1.592555642113107 1.0 0.0
1.638922222094626 1.0 0.0
1.683846722920012 1.0 0.0
1.727373960837219 1.0 0.0
1.769547395111623 1.0 0.0
1.810409141995569 1.0 0.0
2.188119999999948 0.9984500000000022 0.0
2.226239999999895 0.9969000000000042 0.0
2.264359999999671 0.9953500000000134 0.0
2.302479999999619 0.9938000000000156 0.0
2.340599999999567 0.9922500000000177 0.0
2.378719999999689 0.9907000000000128 0.0
2.416839999999636 0.989150000000015 0.0
2.454959999999585 0.987600000000017 0.0
2.493079999999706 0.9860500000000121 0.0
2.839063636363584 0.8466727272727468 0.0
2.874127272727092 0.8336454545455219 0.0
2.909190909090677 0.8206181818182683 0.0
2.944254545454222 0.8075909090910295 0.0
2.97931818181763 0.7945636363638415 0.0
3.014381818181257 0.7815363636365724 0.0
3.049445454545112 0.7685090909092184 0.0
3.084509090908891 0.7554818181818926 0.0
3.119572727272518 0.7424545454546234 0.0
3.154636363636221 0.729427272727326 0.0
3.515699999999767 0.6276300000000459 0.0
3.552999999999703 0.6202600000000585 0.0
3.59029999999978 0.6128900000000433 0.0
3.627599999999699 0.6055200000000595 0.0
3.664899999999474 0.5981500000001038 0.0
3.702199999999584 0.5907800000000822 0.0
3.739499999999687 0.5834100000000619 0.0
3.776799999999796 0.5760400000000403 0.0
3.814099999999899 0.56867000000002 0.0
4.185950000000035 0.5237099999999979 0.0
4.22269999999962 0.5216200000000215 0.0
4.259449999999689 0.5195300000000176 0.0
4.296199999999274 0.5174400000000412 0.0
4.332949999999307 0.5153500000000395 0.0
4.369699999999686 0.5132600000000178 0.0
4.406449999999271 0.5111700000000414 0.0
4.443200000000032 0.5090799999999982 0.0
4.47994999999962 0.5069900000000217 0.0
4.85335999999993 0.5003000000000002 0.0
4.890019999999688 0.5003000000000002 0.0
4.926679999999445 0.5003000000000002 0.0
4.963339999999202 0.5003000000000002 0.0
4.99999999999948 0.5003000000000002 0.0
5.036659999999757 0.5003000000000002 0.0
5.073319999999861 0.5003000000000002 0.0
5.109979999999966 0.5003000000000002 0.0
5.14664000000007 0.5003000000000002 0.0
5.520050000000034 0.506990000000002 0.0
5.556799999999619 0.5090799999999784 0.0
5.593549999999689 0.5111699999999824 0.0
5.630299999999274 0.5132599999999587 0.0
5.667049999999306 0.5153499999999605 0.0
5.703799999999686 0.5174399999999821 0.0
5.740549999999271 0.5195299999999585 0.0
5.777300000000031 0.5216200000000017 0.0
5.814049999999619 0.5237099999999782 0.0
6.185899999999967 0.5686699999999937 0.0
6.223200000000103 0.5760400000000205 0.0
6.26049999999988 0.5834099999999763 0.0
6.297799999999683 0.5907799999999372 0.0
6.335099999999809 0.5981499999999621 0.0
6.372399999999617 0.6055199999999242 0.0
6.409700000000087 0.6128900000000171 0.0
6.446999999999897 0.6202599999999795 0.0
6.484300000000033 0.6276300000000062 0.0
6.845363636363626 0.7294272727272689 0.0
6.880427272727252 0.7424545454545377 0.0
6.915490909090877 0.7554818181818067 0.0
6.950554545454437 0.7685090909090506 0.0
6.985618181818142 0.7815363636363493 0.0
7.020681818181658 0.7945636363635772 0.0
7.055745454545396 0.8075909090908875 0.0
7.090809090908994 0.8206181818181463 0.0
7.125872727272663 0.8336454545454308 0.0
7.160936363636331 0.8466727272727155 0.0
7.50692 0.9860500000000001 0.0
7.545039999999653 0.987599999999986 0.0
7.583159999999308 0.989149999999972 0.0
7.621279999999653 0.990699999999986 0.0
7.659399999999653 0.992249999999986 0.0
7.697519999999654 0.993799999999986 0.0
7.735639999999999 0.9953500000000001 0.0
7.773759999999654 0.9968999999999859 0.0
7.811879999999999 0.99845 0.0
8.189361702128089 1.0 0.0
8.228723404256021 1.0 0.0
8.268085106383511 1.0 0.0
8.307446808511347 1.0 0.0
8.346808510638837 1.0 0.0
8.386170212766556 1.0 0.0
8.425531914894163 1.0 0.0
8.464893617021728 1.0 0.0
8.504255319149491 1.0 0.0
8.543617021276981 1.0 0.0
8.582978723404818 1.0 0.0
8.622340425532308 1.0 0.0
8.661702127660144 1.0 0.0
8.701063829787634 1.0 0.0
8.740425531915472 1.0 0.0
8.779787234042962 1.0 0.0
8.819148936170695 1.0 0.0
8.858510638298288 1.0 0.0
8.897872340425867 1.0 0.0
8.937234042553614 1.0 0.0
8.976595744681104 1.0 0.0
9.01595744680894 1.0 0.0
9.05531914893643 1.0 0.0
9.094680851064266 1.0 0.0
9.134042553191756 1.0 0.0
9.173404255319593 1.0 0.0
9.212765957447777 1.0 0.0
9.252127659575525 1.0 0.0
9.291489361703103 1.0 0.0
9.330851063830696 1.0 0.0
9.37021276595843 1.0 0.0
9.40957446808592 1.0 0.0
9.448936170213758 1.0 0.0
9.488297872341246 1.0 0.0
9.527659574469084 1.0 0.0
9.567021276596574 1.0 0.0
9.60638297872441 1.0 0.0
9.6457446808519 1.0 0.0
9.685106382979662 1.0 0.0
9.724468085107226 1.0 0.0
9.763829787234833 1.0 0.0
9.803191489362552 1.0 0.0
9.842553191490042 1.0 0.0
9.881914893617878 1.0 0.0
9.921276595745368 1.0 0.0
9.960638297872762 1.0 0.0
1.85511112605661 0.9611771432347338 0.0
1.87009618943224 0.9250000000001632 0.0
1.89393398282189 0.8939339828221454 0.0
1.924999999999842 0.8700961894324258 0.0
1.96117714323457 0.8551111260566537 0.0
2.51911222351653 0.9468943483281596 0.0
2.517261556501524 0.9074371004566797 0.0
2.525776366502026 0.8688651237292935 0.0
2.544066041990905 0.8338538805560812 0.0
2.570861958867948 0.8048318507040559 0.0
3.183399471121889 0.6773269167743563 0.0
3.187540640753236 0.6379663627768488 0.0
3.201835045303677 0.6010600964327384 0.0
3.225286972057683 0.569178916585472 0.0
3.256262818048977 0.5445435870349058 0.0
3.851311808445927 0.5217631357369752 0.0
3.861560068046178 0.4835774762734121 0.0
3.881432344049533 0.449397598275363 0.0
3.909547162863183 0.4215996059626037 0.0
3.94395004882614 0.4021159499676259 0.0
4.520996695771619 0.4658028333951991 0.0
4.53530678067777 0.4291658097571295 0.0
4.558646801051933 0.3975067908214496 0.0
4.589412725279813 0.3730015273561684 0.0
4.625490180094372 0.3573341317450809 0.0
5.188792203110742 0.4613608817416055 0.0
5.204215644069836 0.4251871800409458 0.0
5.228510353354086 0.3942649174043062 0.0
5.260006687237601 0.3707192133874752 0.0
5.296540073359643 0.3561682366420743 0.0
5.860011021539801 0.4873401270919612 0.0
5.878953813569356 0.4526244912484382 0.0
5.906311508814615 0.4240664581795365 0.0
5.94018225175748 0.4036513286316637 0.0
5.978211412052326 0.3927983240146977 0.0
6.536647498529492 0.5983695458969855 0.0
6.560754133038625 0.5669515963705687 0.0
6.592240694919373 0.5429346481718567 0.0
6.628913908052386 0.5279916625832858 0.0
6.668219207005813 0.523163531066366 0.0
7.216556713460987 0.8259527451430548 0.0
7.245211027874307 0.7987427112527251 0.0
7.279975409646859 0.7799572530799906 0.0
7.318438515914653 0.7708993761205898 0.0
7.357932451203028 0.7721973569569427 0.0
7.855111126056608 0.9611771432347389 0.0
7.87009618943239 0.9249999999999031 0.0
7.893933982821849 0.893933982822186 0.0
7.924999999999724 0.870096189432493 0.0
7.961177143234544 0.8551111260566602 0.0
2.038822856765458 0.8551111260566613 0.0
2.074999999999886 0.8700961894322686 0.0
2.106066017177859 0.8939339828218953 0.0
2.129903810567719 0.9250000000000924 0.0
2.144888873943354 0.9611771432345996 0.0
2.642072213105018 0.7722253821844589 0.0
2.68155866996913 0.7709276471286509 0.0
2.720014493007171 0.7799838089221203 0.0
2.754772291926727 0.7987657099507169 0.0
2.783421180466018 0.8259705914503371 0.0
3.331781228837649 0.5232065749202437 0.0
3.371075251522289 0.5280333212977997 0.0
3.407737943504146 0.5429720199040406 0.0
3.439215472227839 0.5669820778975886 0.0
3.463315190802363 0.5983910139513634 0.0
4.021785797379926 0.3928173305182819 0.0
4.059810087100174 0.4036689451393993 0.0
4.093676492056691 0.424081460024671 0.0
4.121030683473297 0.4526358355315954 0.0
4.139971049410406 0.4873470251801275 0.0
4.703463602180634 0.3561536952559329 0.0
4.740000641190358 0.3707061269192393 0.0
4.771500124319702 0.3942541852163063 0.0
4.795797262775971 0.4251795396981159 0.0
4.811222245889969 0.4613568583244396 0.0
5.37450551763444 0.3573491929815369 0.0
5.410579205991976 0.3730149529290054 0.0
5.44134191828321 0.3975176580649515 0.0
5.464679501979187 0.429173371825681 0.0
5.478988092924676 0.4658065705894096 0.0
6.056057512867302 0.4020971861494807 0.0
6.090465040120479 0.4215834706823507 0.0
6.118583651902696 0.4493852132201999 0.0
6.138458608873377 0.4835697024226929 0.0
6.14870825106575 0.521760513510746 0.0
6.743759676449819 0.5445060199603367 0.0
6.774744567243897 0.569148542912274 0.0
6.798203341851458 0.6010390319154575 0.0
6.812501920301792 0.6379560747176215 0.0
6.816644299135661 0.6773281218144781 0.0
[...]
POINT_DATA 2757
VECTORS vector double
0.0 0.0 0.0
0.0 0.0 0.0
0.0 0.0 0.0
0.0 0.0 0.0
0.0 0.0 0.0
0.0 0.0 0.0
0.0 0.0 0.0
0.0 0.0 0.0
0.0 0.0 0.0
0.0 0.0 0.0
0.0 0.0 0.0
0.0 0.0 0.0
0.0 0.0 0.0
0.0 0.0 0.0
0.0 0.0 0.0
0.0 0.0 0.0
0.0 0.0 0.0
0.0 0.0 0.0
0.0 0.0 0.0
0.0 0.0 0.0
0.0 0.0 0.0
0.0 0.0 0.0
0.0 0.0 0.0
0.0 0.0 0.0
0.0 0.0 0.0
0.0 0.0 0.0
0.0 0.0 0.0
0.0 0.0 0.0
0.0 0.0 0.0
0.0 0.0 0.0
0.0 0.0 0.0
0.0 0.0 0.0
1.5 -0.00204224718655 0.0
1.09671409872 -8.82443541194e-06 0.0
0.0 0.0 0.0
0.0 0.0 0.0
0.0 0.0 0.0
0.0 0.0 0.0
0.0 0.0 0.0
0.0 0.0 0.0
0.0 0.0 0.0
0.0 0.0 0.0
0.0 0.0 0.0
0.0 0.0 0.0
0.0 0.0 0.0
0.0 0.0 0.0
0.0 0.0 0.0
0.0 0.0 0.0
0.0 0.0 0.0
0.0 0.0 0.0
0.0 0.0 0.0
0.0 0.0 0.0
0.0 0.0 0.0
0.0 0.0 0.0
0.0 0.0 0.0
0.0 0.0 0.0
0.0 0.0 0.0
0.0 0.0 0.0
0.0 0.0 0.0
0.0 0.0 0.0
0.0 0.0 0.0
0.0 0.0 0.0
0.0 0.0 0.0
0.0 0.0 0.0
0.0 0.0 0.0
0.0 0.0 0.0
0.0 0.0 0.0
0.0 0.0 0.0
0.0 0.0 0.0
0.0 0.0 0.0
0.0 0.0 0.0
0.0 0.0 0.0
0.0 0.0 0.0
0.0 0.0 0.0
0.0 0.0 0.0
0.0 0.0 0.0
0.0 0.0 0.0
0.0 0.0 0.0
0.0 0.0 0.0
0.0 0.0 0.0
0.0 0.0 0.0
0.0 0.0 0.0
0.0 0.0 0.0
0.0 0.0 0.0
0.0 0.0 0.0
0.0 0.0 0.0
0.0 0.0 0.0
0.0 0.0 0.0
0.0 0.0 0.0
0.0 0.0 0.0
0.0 0.0 0.0
0.0 0.0 0.0
0.0 0.0 0.0
0.0 0.0 0.0
0.0 0.0 0.0
0.0 0.0 0.0
0.0 0.0 0.0
0.0 0.0 0.0
0.0 0.0 0.0
0.0 0.0 0.0
0.0 0.0 0.0
0.0 0.0 0.0
0.0 0.0 0.0
0.0 0.0 0.0
0.0 0.0 0.0
0.0 0.0 0.0
0.0 0.0 0.0
0.0 0.0 0.0
0.0 0.0 0.0
0.0 0.0 0.0
0.0 0.0 0.0
0.0 0.0 0.0
0.0 0.0 0.0
0.0 0.0 0.0
0.0 0.0 0.0
0.0 0.0 0.0
0.0 0.0 0.0
0.0 0.0 0.0
0.0 0.0 0.0
0.0 0.0 0.0
0.0 0.0 0.0
0.0 0.0 0.0
0.0 0.0 0.0
0.0 0.0 0.0
0.0 0.0 0.0
0.0 0.0 0.0
0.0 0.0 0.0
0.0 0.0 0.0
0.0 0.0 0.0
0.0 0.0 0.0
0.0 0.0 0.0
0.0 0.0 0.0
0.0 0.0 0.0
0.0 0.0 0.0
0.0 0.0 0.0
0.0 0.0 0.0
0.0 0.0 0.0
0.0 0.0 0.0
0.0 0.0 0.0
0.0 0.0 0.0
0.0 0.0 0.0
0.0 0.0 0.0
0.0 0.0 0.0
0.0 0.0 0.0
0.0 0.0 0.0
0.0 0.0 0.0
0.0 0.0 0.0
0.0 0.0 0.0
0.0 0.0 0.0
0.0 0.0 0.0
0.0 0.0 0.0
0.0 0.0 0.0
0.0 0.0 0.0
0.0 0.0 0.0
0.0 0.0 0.0
0.0 0.0 0.0
0.0 0.0 0.0
0.0 0.0 0.0
0.0 0.0 0.0
0.0 0.0 0.0
0.0 0.0 0.0
0.0 0.0 0.0
0.0 0.0 0.0
0.0 0.0 0.0
0.0 0.0 0.0
0.0 0.0 0.0
0.0 0.0 0.0
0.0 0.0 0.0
0.0 0.0 0.0
0.0 0.0 0.0
0.0 0.0 0.0
0.0 0.0 0.0
0.0 0.0 0.0
0.0 0.0 0.0
0.0 0.0 0.0
0.0 0.0 0.0
0.0 0.0 0.0
0.0 0.0 0.0
0.0 0.0 0.0
0.0 0.0 0.0
0.0 0.0 0.0
0.0 0.0 0.0
0.0 0.0 0.0
0.0 0.0 0.0
0.0 0.0 0.0
0.0 0.0 0.0
0.0 0.0 0.0
0.0 0.0 0.0
0.0 0.0 0.0
0.0 0.0 0.0
0.0 0.0 0.0
0.0 0.0 0.0
0.0 0.0 0.0
0.0 0.0 0.0
0.0 0.0 0.0
0.0 0.0 0.0
0.0 0.0 0.0
0.0 0.0 0.0
0.0 0.0 0.0
0.0 0.0 0.0
0.0 0.0 0.0
0.0 0.0 0.0
0.0 0.0 0.0
0.0 0.0 0.0
0.0 0.0 0.0
0.0 0.0 0.0
0.0 0.0 0.0
0.0 0.0 0.0
0.0 0.0 0.0
0.0 0.0 0.0
0.0 0.0 0.0
0.0 0.0 0.0
0.0 0.0 0.0
0.0 0.0 0.0
0.0 0.0 0.0
0.0 0.0 0.0
0.0 0.0 0.0
0.0 0.0 0.0
0.0 0.0 0.0
0.0 0.0 0.0
0.0 0.0 0.0
0.0 0.0 0.0
0.0 0.0 0.0
0.0 0.0 0.0
0.0 0.0 0.0
0.0 0.0 0.0
0.0 0.0 0.0
0.0 0.0 0.0
0.0 0.0 0.0
0.0 0.0 0.0
0.0 0.0 0.0
0.0 0.0 0.0
0.0 0.0 0.0
0.0 0.0 0.0
0.0 0.0 0.0
0.0 0.0 0.0
0.0 0.0 0.0
0.0 0.0 0.0
0.0 0.0 0.0
0.0 0.0 0.0
0.0 0.0 0.0
0.0 0.0 0.0
0.0 0.0 0.0
0.0 0.0 0.0
0.0 0.0 0.0
0.0 0.0 0.0
0.0 0.0 0.0
0.0 0.0 0.0
0.0 0.0 0.0
0.0 0.0 0.0
0.0 0.0 0.0
0.0 0.0 0.0
0.0 0.0 0.0
0.0 0.0 0.0
0.0 0.0 0.0
0.0 0.0 0.0
0.0 0.0 0.0
0.0 0.0 0.0
0.0 0.0 0.0
0.0 0.0 0.0
0.0 0.0 0.0
0.0 0.0 0.0
0.0 0.0 0.0
0.0 0.0 0.0
0.0 0.0 0.0
0.0 0.0 0.0
0.0 0.0 0.0
0.0 0.0 0.0
0.0 0.0 0.0
0.0 0.0 0.0
0.0 0.0 0.0
0.0 0.0 0.0
0.0 0.0 0.0
0.0 0.0 0.0
0.0 0.0 0.0
0.0 0.0 0.0
0.0 0.0 0.0
0.0 0.0 0.0
0.0 0.0 0.0
0.0 0.0 0.0
0.0 0.0 0.0
0.0 0.0 0.0
0.0 0.0 0.0
0.0 0.0 0.0
0.0 0.0 0.0
0.0 0.0 0.0
0.0 0.0 0.0
0.0 0.0 0.0
0.0 0.0 0.0
0.0 0.0 0.0
0.0 0.0 0.0
1.58324191707 -0.000777682715569 0.0
1.5494411638 -0.00274937707972 0.0
1.52636795011 -0.0019419588909 0.0
1.46419086144 0.010212942338 0.0
1.41538324617 -0.0211561847439 0.0
1.35270193543 0.0104088639316 0.0
1.28364008619 -0.00430332674439 0.0
1.24707141589 -1.92055768689e-05 0.0
1.20390393612 0.00392703507159 0.0
1.17546244725 -0.00357321011511 0.0
1.16077476826 -6.17430286049e-06 0.0
1.15032899559 0.00019748742538 0.0
1.14921241013 -1.93894224349e-05 0.0
1.14947397583 -0.000149586139372 0.0
1.15564513106 0.00119772430199 0.0
1.1627478095 -0.000388885280736 0.0
1.17357535965 0.000359452769694 0.0
1.18935091166 -0.00131025303485 0.0
1.20812463948 0.000586875853205 0.0
1.2240078625 0.000853466495326 0.0
1.24522426286 -0.00226371758338 0.0
1.271300579 0.00193792623512 0.0
1.29043160597 0.000518490738163 0.0
1.32349460044 -0.00329515547067 0.0
1.36353772489 0.000383907536052 0.0
1.39555418531 0.00275753881353 0.0
1.44461343335 0.00687082661575 0.0
1.49971678278 -0.00773405420407 0.0
1.57828935261 0.00588050183848 0.0
1.65558696632 -0.00722590852068 0.0
1.76234804971 -0.00751091803311 0.0
1.85620495154 0.00576333585568 0.0
1.94178581261 0.00679749910761 0.0
2.02589552791 -0.00779372327713 0.0
2.12857080913 -0.00601322378771 0.0
2.22411768569 0.00329785018992 0.0
2.33115710532 0.00331838257753 0.0
2.43865984514 -0.00226193689544 0.0
2.56167877762 0.00203742920035 0.0
2.65511864328 0.00224454532859 0.0
2.73014250686 -0.00516733433903 0.0
2.78315184034 0.00337869479436 0.0
2.83395287126 -0.00229680859692 0.0
2.90864346985 0.00618032406979 0.0
2.97397656796 0.00022609624428 0.0
3.07208065415 -0.00824310575232 0.0
3.14098469742 0.000733943917114 0.0
3.15899284608 0.00101824042222 0.0
3.16637184723 0.000316569527465 0.0
3.17139192865 0.000243392713948 0.0
3.18762381154 -0.0013130687221 0.0
3.21632200208 -0.000140513486372 0.0
3.2390614655 4.04857988287e-05 0.0
3.22711196131 0.00250249519413 0.0
3.17897046286 0.000312088422883 0.0
3.13608863671 -0.00394143338933 0.0
3.08021102942 0.00203703017568 0.0
3.03382609828 -0.00399862399049 0.0
2.97579671913 0.00625439949522 0.0
2.89848598375 -0.00205124490577 0.0
2.8094337566 -0.00241496623064 0.0
2.69434803098 0.00155160573583 0.0
2.58877352778 -0.00268389634414 0.0
2.47368508848 -0.00347482951901 0.0
2.35882712315 0.00781821204086 0.0
2.22885051973 0.00950261340602 0.0
2.12597982908 -0.00837436555804 0.0
2.02862244236 -0.00659059381363 0.0
1.92334458313 0.00881532669454 0.0
1.80641780869 0.00382344253812 0.0
1.68869282328 0.0152613213715 0.0
1.61672506005 -0.0297408976083 0.0
1.55012098263 0.0164391065368 0.0
1.4605632521 -0.00288918450713 0.0
1.42541311344 -0.00488715482225 0.0
1.36751097979 0.00269802860989 0.0
1.32212277138 2.15927860936e-05 0.0
1.29740619564 -0.00266681423049 0.0
1.2645385967 0.00307493435123 0.0
1.23779413697 -0.000685152877976 0.0
1.21695837645 0.000501616377556 0.0
1.19941062622 -0.00146830432947 0.0
1.17966528765 -0.00147249413684 0.0
1.16756588882 0.00037507191753 0.0
1.15292799839 -0.000564156174079 0.0
1.13828340636 0.000182875147146 0.0
1.12983377642 -0.000601472333445 0.0
1.12106905871 0.000217446855557 0.0
1.11542384056 -0.000655948185094 0.0
1.10915776989 0.000452082046368 0.0
1.10505956918 -0.000115765370772 0.0
1.10242025664 -2.46616964837e-05 0.0
1.1004358599 8.19109523736e-05 0.0
1.09878728748 -5.9596373774e-05 0.0
1.09790466564 -4.61313762715e-05 0.0
1.09742376952 2.68000257662e-05 0.0
1.09703435339 -3.89248413407e-05 0.0
1.09677978413 1.37155218529e-06 0.0
1.09665894956 3.65232269236e-06 0.0
1.485 -0.000372945792747 0.0
1.44 -0.00448586881355 0.0
1.365 -0.0131354071354 0.0
1.26 -0.00780181323677 0.0
1.125 0.00774858809189 0.0
0.960000000002 -0.000730182402225 0.0
0.765000000002 0.00132465012238 0.0
0.540000000001 -0.0168224607124 0.0
0.285000000001 -0.0148494760057 0.0
1.09659892404 8.01573686898e-06 0.0
1.0965816024 2.46297318022e-05 0.0
1.0966143455 3.70917993693e-05 0.0
1.09655622267 3.15362418236e-05 0.0
1.09644656191 2.23622566862e-05 0.0
1.09653271634 4.81057384926e-05 0.0
1.09640577587 6.9918537444e-05 0.0
1.09567893011 0.000219980034946 0.0
1.09177508398 0.000776314474597 0.0
1.08047278521 0.00318810462084 0.0
1.04742549299 0.00705157016727 0.0
0.985263503903 0.0100245360924 0.0
0.855841166222 0.00263553629014 0.0
0.610778099851 0.0176216984488 0.0
0.256897165972 0.0196377932666 0.0
1.14508740019 0.0871943132941 0.0
1.09494850531 0.00102411188022 0.0
1.0889585142 0.0239468028813 0.0
1.41473238719 -0.289779059044 0.0
1.48844633261 0.394487079712 0.0
1.10549757193 -0.0822525594996 0.0
1.22254148007 -0.100510672995 0.0
1.20303995047 0.162371274811 0.0
1.08629566857 0.0243318044272 0.0
2.02744975108 -0.266757528887 0.0
2.08901953414 0.365743017587 0.0
1.21198486893 0.089098604364 0.0
1.08537456818 0.00332082015099 0.0
1.20645220404 -0.11114527527 0.0
2.64659135767 0.140994373319 0.0
2.59633718243 -0.0786612963841 0.0
1.06593656819 0.192123988919 0.0
2.77147654132 0.0344357419543 0.0
1.04694651922 0.071201407355 0.0
1.03748603904 0.174438479732 0.0
1.07183616431 -0.00244667797163 0.0
1.2930514439 -0.18945606716 0.0
1.29188450246 0.25420600685 0.0
1.06657470718 0.000353754090817 0.0
0.930901941336 -0.1279011373 0.0
1.6386660398 -0.40661980335 0.0
1.79373957968 0.439766377372 0.0
1.04627687806 0.00634792561364 0.0
1.04452168436 -0.0239144360147 0.0
0.600514108986 0.134892623555 0.0
0.64209994824 0.0372937898415 0.0
1.18478586775 -0.0552554849706 0.0
1.09444812569 0.0646448695806 0.0
2.08647773585 0.290735635388 0.0
2.03382225248 -0.240879847839 0.0
1.09863191882 0.0068685517758 0.0
0.910923555114 0.124814284713 0.0
1.06503259394 -0.204654305928 0.0
1.12560704442 -0.422165371975 0.0
0.976908767777 0.421010482577 0.0
0.920704622651 0.32262493592 0.0
2.83545206654 0.0833104959404 0.0
2.73510385594 -0.0840906749257 0.0
1.24540470065 -0.0622570157804 0.0
1.25997080507 0.075676371657 0.0
1.12061033577 0.0323284433158 0.0
0.970626146301 -0.165700782072 0.0
1.02320054901 0.245413317368 0.0
1.12817274652 -0.0149665215186 0.0
1.01303331684 0.0543352883873 0.0
1.20981416876 0.0791842374057 0.0
0.982996449328 -0.0086650995923 0.0
0.976252289399 0.00134007285642 0.0
1.09650712915 0.000445192934948 0.0
1.1745069058 -0.0460710403799 0.0
0.939936904483 0.0112731947789 0.0
0.891045103463 0.133886819858 0.0
1.15367331516 -0.19753845752 0.0
1.28627424757 -0.101469309971 0.0
1.45982763636 0.164019433748 0.0
1.38961236421 -0.118883650515 0.0
1.19086473882 0.0527121295122 0.0
2.21073555267 -0.448916340195 0.0
2.32875626944 0.342911848715 0.0
0.943367195372 0.0040971665446 0.0
1.3068396567 0.14492904495 0.0
2.71644948582 0.25046771056 0.0
2.66199614346 -0.304040212397 0.0
2.77682439671 -0.0728286524602 0.0
2.59647165304 -0.298023011944 0.0
2.69426361993 0.161496778433 0.0
1.26271652786 0.161807080528 0.0
1.15363449017 0.0768728656582 0.0
3.0930985555 -0.142097156788 0.0
3.16958516053 0.0660257857692 0.0
1.09605729717 4.80449526869e-05 0.0
1.06267719787 -0.0446782731965 0.0
0.665803732215 0.19648530045 0.0
0.939637489002 -0.210931655466 0.0
0.457313448412 0.0434855445815 0.0
0.917714684231 -0.00584868466524 0.0
0.937864101386 -0.0529969399952 0.0
1.29205946229 -0.230015559314 0.0
1.10769178807 0.0141302629576 0.0
0.970764583788 0.0751376988436 0.0
0.70423377302 0.139255401872 0.0
3.03363263521 0.020101326257 0.0
0.546846500083 -0.0369860954664 0.0
0.956216001898 -0.0798277522021 0.0
0.981964497125 0.00526584925045 0.0
0.843374836735 0.0445364820904 0.0
0.808988163498 0.0230472959307 0.0
0.517290445165 0.010043870021 0.0
1.09733786112 0.00224518581212 0.0
1.13890601594 0.253062213262 0.0
0.332265750746 -0.0190634074582 0.0
0.186586455913 0.0590154961082 0.0
1.18789124178 0.120857804647 0.0
1.219578166 0.101931044015 0.0
1.23730088876 -0.0899488762713 0.0
0.896468958583 0.122527772245 0.0
1.26695831056 0.457166796928 0.0
1.09466105404 0.00384669665381 0.0
1.02989759892 0.181293404397 0.0
1.70884485218 0.219595008415 0.0
1.5495880513 -0.174527438005 0.0
1.09152617095 -0.000209899672886 0.0
0.818330465058 0.0026515134138 0.0
0.807552726935 -0.0070123413058 0.0
1.13581558881 0.0215214929952 0.0
1.10631516833 0.0624708857513 0.0
0.826477561026 -0.00293810435055 0.0
1.39006688764 0.300102310189 0.0
0.631499180048 0.139048183454 0.0
0.369416640456 0.110005087001 0.0
1.84012092313 0.41471965182 0.0
2.00445451034 0.239557723235 0.0
1.90485325681 -0.486786694956 0.0
1.84640426501 -0.218704812689 0.0
0.654149718035 -0.202062406434 0.0
1.23324252087 0.139718725292 0.0
1.08561155675 0.0106421639922 0.0
0.309316184735 0.185307013279 0.0
1.18156884326 -0.28244828445 0.0
1.06689000674 0.0322803710164 0.0
1.09682626224 -0.0288363255281 0.0
1.2097929768 -0.0576545599464 0.0
1.220123724 -0.137659889228 0.0
1.08816461748 0.111118367187 0.0
1.09161125325 0.256136511108 0.0
1.15204901627 0.0484083420262 0.0
1.36049136839 -0.200450960822 0.0
1.22231049184 0.061735792177 0.0
1.14326913538 -0.110269770602 0.0
0.112795407119 0.011974794115 0.0
0.539454961412 -0.137871977124 0.0
0.774731230268 -0.0320240372777 0.0
0.760775819473 0.033156997883 0.0
1.94688621242 -0.169866378854 0.0
1.69226594202 0.226485579154 0.0
0.372466632854 -0.0407144084029 0.0
1.09237139031 -0.000693079422259 0.0
1.52216402786 -0.627334849222 0.0
0.874913893277 -0.0162939990061 0.0
1.07570991183 0.107741224381 0.0
1.09165849881 0.00186737100546 0.0
0.755104687866 0.123568619951 0.0
0.784738145847 -0.00984791249585 0.0
0.522368912701 -0.24922684323 0.0
0.749027985567 0.00389993559922 0.0
0.229776841017 0.102839238396 0.0
0.121281507379 0.0220982148858 0.0
0.216621138896 0.0288485325606 0.0
1.17895845897 0.0756366081766 0.0
0.590705968894 -0.0512286658769 0.0
0.946001757144 -0.261396313287 0.0
1.13194374099 -0.0455447136466 0.0
1.15223832521 -0.0182590924085 0.0
2.00487017567 0.0503242212863 0.0
2.33759711332 -0.0258153131539 0.0
1.09534801539 0.0118640972575 0.0
1.23319939956 -0.150168677555 0.0
1.22987921914 0.216080259044 0.0
1.0531118876 0.139836312828 0.0
1.12503251105 -0.0396522245801 0.0
1.25484847239 -0.0894790066769 0.0
1.25848229862 0.121208389485 0.0
1.11276636976 -0.0156879099419 0.0
1.0917631775 0.0071564688858 0.0
0.728552023475 0.013962174752 0.0
0.643226371144 0.059146917934 0.0
2.28975403346 0.194093037756 0.0
2.07544816016 -0.145545832143 0.0
1.53757523508 0.467538160673 0.0
1.0704834243 0.00332469248702 0.0
1.10372420041 0.0782424499229 0.0
2.54319328011 0.176181950763 0.0
2.27855216122 -0.175288319396 0.0
1.06268045835 -0.0539261188335 0.0
0.0963758066955 0.0381772814993 0.0
0.087714610299 0.0650429574778 0.0
0.633129907555 0.00969771059261 0.0
1.40457819839 0.0887254817529 0.0
1.32333986574 0.0612821758396 0.0
1.14431419567 0.129203119136 0.0
0.625733416662 -0.179554022877 0.0
0.559949288234 0.176452300757 0.0
1.3540981592 -0.0583546726225 0.0
1.04923129736 -0.127624839835 0.0
1.10201095388 0.0340387731094 0.0
1.23873427715 -0.107653316074 0.0
1.06732593941 0.00479755453806 0.0
0.753668258576 -0.0571160804646 0.0
0.278846407274 0.0810066753702 0.0
1.28243527259 -0.0421874270541 0.0
0.816326431065 -0.00734197717191 0.0
2.92099414872 -0.144264988976 0.0
1.32312433889 -0.133238677093 0.0
1.09649328794 0.000150624878779 0.0
1.06817816492 -0.00150053142611 0.0
1.3748724211 0.201621805388 0.0
1.09646796681 0.00128553322006 0.0
2.0440217514 -0.290830334338 0.0
1.83155241705 0.284401121796 0.0
0.825956670873 0.0242659025817 0.0
1.32817247576 -0.256440987855 0.0
1.20622406247 0.0852236163219 0.0
0.766299424099 0.158709933484 0.0
0.396659934491 -0.0620401020308 0.0
0.0472479060043 0.0744336048777 0.0
0.539024328544 0.0320374017447 0.0
0.585901782005 -0.00718878167136 0.0
0.675172490824 -0.0040495763202 0.0
1.48620179215 0.0507213281897 0.0
0.706056413002 -0.0133068175211 0.0
0.36409811992 0.0687892638805 0.0
1.05357636803 0.194395424463 0.0
1.10966599598 -0.0027636846162 0.0
0.357463198651 -0.0105596493006 0.0
1.17716850213 -0.0794106433453 0.0
0.761995144537 0.206669300318 0.0
0.799150311032 -0.0504841349742 0.0
1.05543915052 0.148094207041 0.0
1.46934986987 -0.376648499779 0.0
0.732095973351 -0.0196415331805 0.0
1.10467011438 0.00662928461411 0.0
1.09261969935 0.000634293274949 0.0
1.09961488118 0.00326689850439 0.0
1.09560555899 0.000323351413273 0.0
1.43899464858 -0.181300025103 0.0
2.19219995429 0.336245158825 0.0
2.73382603399 -0.170707052283 0.0
1.07530175769 0.0180769097903 0.0
2.56329591902 0.135159058539 0.0
2.35309027937 -0.56083472553 0.0
1.14383696466 0.0222149562927 0.0
1.55207273041 0.235765534887 0.0
1.46616880471 -0.100729742795 0.0
1.09713905393 0.000812355080203 0.0
2.66436527104 -0.350276465245 0.0
2.44141070258 0.168282591292 0.0
0.596549435709 -0.0241098563669 0.0
1.0937511413 -0.000476820374455 0.0
1.20071080816 -0.0273704307189 0.0
1.0965508684 0.000170035919895 0.0
1.23257350618 -0.0327883254929 0.0
1.08405792711 0.0522752332893 0.0
1.12027880851 0.0132611847305 0.0
2.01914397368 0.103918057083 0.0
0.93435225511 -0.325876801544 0.0
1.10507497041 -0.15614521321 0.0
1.05899039845 0.0321186924266 0.0
1.24586874318 0.0404278111703 0.0
1.24099188658 0.442372245073 0.0
1.29398780111 -0.337232999474 0.0
1.1170179216 0.129143151857 0.0
1.04432019273 4.52058254266e-05 0.0
0.6592904023 0.000347993953671 0.0
1.17291855129 0.0323290568796 0.0
2.89742732578 0.0110242448104 0.0
1.70053154675 -0.230184656856 0.0
1.85555890629 0.258876039432 0.0
1.21539180657 0.031744647995 0.0
1.01744644712 -0.0833952276245 0.0
1.07436426816 0.00207783277489 0.0
0.487406929356 0.0849948453598 0.0
0.592638652301 0.0045582619597 0.0
0.983343652216 0.0416933183995 0.0
1.30677304179 0.370053298051 0.0
0.603097953843 -0.00592918855046 0.0
1.14200496387 0.000313934887659 0.0
0.670685506224 0.0165797797108 0.0
1.14418037177 -0.224802771592 0.0
0.971216407744 -0.0127066939609 0.0
2.16044754495 0.173816229063 0.0
1.06099903601 -0.249979679033 0.0
1.97669908943 -0.144332418951 0.0
1.35710842327 0.442506367175 0.0
1.07687355516 -0.000374577779521 0.0
1.12048171871 0.0479008637488 0.0
3.11882891842 -0.0116177395486 0.0
3.12178356535 0.000589544527719 0.0
1.16135916396 0.0330137802586 0.0
0.973446057165 0.0826999672166 0.0
1.56499793964 0.120434429098 0.0
0.957151688479 0.183804639082 0.0
1.17059226536 0.1170994286 0.0
0.536492372036 0.023219101283 0.0
1.22616266281 -0.0808158458774 0.0
2.8537622333 -0.0782200318667 0.0
3.08171533751 0.0551787843767 0.0
2.70105705923 0.188091529486 0.0
2.46140601369 -0.20718270283 0.0
1.45792602325 -0.581082296329 0.0
1.1249989058 0.231135545417 0.0
1.1730706149 -0.214764822927 0.0
0.751170608011 -0.00111135282531 0.0
1.38175195976 0.104640217574 0.0
1.09589486575 0.00241697602424 0.0
0.183507815333 0.0476024439018 0.0
-0.0142295803739 0.0532471228162 0.0
1.84975713508 -0.242544172056 0.0
1.06982292105 -0.00017202723906 0.0
0.233610045771 -0.0841381483102 0.0
-0.131783245188 -0.109511891698 0.0
1.22163706593 0.0705687420777 0.0
1.58274264797 -0.24005458978 0.0
1.34059720675 0.301396533062 0.0
0.850277862152 -0.581499477569 0.0
1.71601853398 0.363615757944 0.0
1.19336951575 0.130265927461 0.0
1.13871125072 -0.0712045301649 0.0
1.22438680539 -0.0835033834079 0.0
0.582048973516 -0.0296376906553 0.0
1.04571719666 0.0164305678979 0.0
1.25933020355 0.164866589581 0.0
1.25397201379 -0.113336845085 0.0
0.419731547789 0.145034988223 0.0
0.998557578557 0.108099380725 0.0
1.09630069537 4.97724326149e-05 0.0
1.12937845649 0.150038557964 0.0
1.30223380854 0.20200306346 0.0
1.28485025188 -0.142756176957 0.0
0.0355347554534 -0.00709797100329 0.0
-0.0438468276684 -0.0378212574753 0.0
1.17565392226 0.0187298534608 0.0
0.769601620149 0.106721510418 0.0
1.22548413289 0.0840547105975 0.0
1.00013860652 -0.00167949134219 0.0
0.0602285203392 0.0684221677399 0.0
-0.0635631763827 0.0703209577244 0.0
1.72214167841 -0.400335396414 0.0
1.22663796565 0.139449636224 0.0
2.78982227527 -0.0544709778206 0.0
3.02198478689 0.0565717627998 0.0
1.09696369299 0.004374706949 0.0
-0.102509308011 -0.0791352915646 0.0
0.147643115233 -0.025345344604 0.0
1.10325066658 0.200143007705 0.0
1.12092915636 -0.092526909643 0.0
0.530940094863 0.0616500335333 0.0
0.973538061807 -0.0031050659849 0.0
1.20446611542 0.0771831740541 0.0
1.96225564218 -0.298738491315 0.0
1.13157054505 0.0627560874004 0.0
2.04656271126 0.318748455585 0.0
1.22042954531 -0.145364438535 0.0
0.884665313119 0.0731847688535 0.0
1.00412620343 0.00290341753862 0.0
2.04467161139 -0.214068130082 0.0
2.09955933738 0.299050377268 0.0
1.13502621834 0.154043477456 0.0