# vtk DataFile Version 2.0
2D Simulation Python
ASCII
DATASET UNSTRUCTURED_GRID
FIELD FieldData 1
NODES 1 2 int
2757 5098

POINTS 2757 double
0.0 1.0 0.0
1.85 1.0 0.0
2.15 1.0 0.0
2.5312 0.9845000000000002 0.0
2.804 0.8597000000000001 0.0
3.1897 0.7164000000000001 0.0
3.4784 0.6349999999999998 0.0
3.8514 0.5613000000000001 0.0
4.1492 0.5257999999999998 0.0
4.5167 0.5049000000000001 0.0
4.8167 0.5003000000000002 0.0
5.1833 0.5003000000000002 0.0
5.4833 0.5049000000000001 0.0
5.8508 0.5257999999999998 0.0
6.1486 0.5613000000000001 0.0
6.5216 0.6349999999999998 0.0
6.8103 0.7164000000000001 0.0
7.196 0.8597000000000001 0.0
7.4688 0.9845000000000002 0.0
7.85 1.0 0.0
8.15 1.0 0.0
10.0 1.0 0.0
2.0 0.8500000000000001 0.0
2.604294 0.7837869999999998 0.0
3.292593 0.5288279999999999 0.0
3.982247 0.3922810000000001 0.0
4.6644 0.3515969999999999 0.0
5.3356 0.3515969999999999 0.0
6.017753 0.3922810000000001 0.0
6.707407 0.5288279999999999 0.0
7.395706 0.7837869999999998 0.0
8.0 0.8500000000000001 0.0
0.0 0.0 0.0
10.0 0.0 0.0
0.09589869952291516 1.0 0.0
0.1888147635033504 1.0 0.0
0.2788409054415558 1.0 0.0
0.3660670333996566 1.0 0.0
0.4505802302878947 1.0 0.0
0.5324648790931192 1.0 0.0
0.6118027156217198 1.0 0.0
0.6886729728356462 1.0 0.0
0.7631523848471844 1.0 0.0
0.8353153174851218 1.0 0.0
0.9052338217649879 1.0 0.0
0.9729776980408794 1.0 0.0
1.038614580849525 1.0 0.0
1.102210010843471 1.0 0.0
1.163827479442682 1.0 0.0
1.223528508355988 1.0 0.0
1.281372692526642 1.0 0.0
1.337417785230084 1.0 0.0
1.391719743967992 1.0 0.0
1.444332799787133 1.0 0.0
1.495309459666087 1.0 0.0
1.544700643890327 1.0 0.0
1.592555642113107 1.0 0.0
1.638922222094626 1.0 0.0
1.683846722920012 1.0 0.0
1.727373960837219 1.0 0.0
1.769547395111623 1.0 0.0
1.810409141995569 1.0 0.0
2.188119999999948 0.9984500000000022 0.0
2.226239999999895 0.9969000000000042 0.0
2.264359999999671 0.9953500000000134 0.0
2.302479999999619 0.9938000000000156 0.0
2.340599999999567 0.9922500000000177 0.0
2.378719999999689 0.9907000000000128 0.0
2.416839999999636 0.989150000000015 0.0
2.454959999999585 0.987600000000017 0.0
2.493079999999706 0.9860500000000121 0.0
2.839063636363584 0.8466727272727468 0.0
2.874127272727092 0.8336454545455219 0.0
2.909190909090677 0.8206181818182683 0.0
2.944254545454222 0.8075909090910295 0.0
2.97931818181763 0.7945636363638415 0.0
3.014381818181257 0.7815363636365724 0.0
3.049445454545112 0.7685090909092184 0.0
3.084509090908891 0.7554818181818926 0.0
3.119572727272518 0.7424545454546234 0.0
3.154636363636221 0.729427272727326 0.0
3.515699999999767 0.6276300000000459 0.0
3.552999999999703 0.6202600000000585 0.0
3.59029999999978 0.6128900000000433 0.0
3.627599999999699 0.6055200000000595 0.0
3.664899999999474 0.5981500000001038 0.0
3.702199999999584 0.5907800000000822 0.0
3.739499999999687 0.5834100000000619 0.0
3.776799999999796 0.5760400000000403 0.0
3.814099999999899 0.56867000000002 0.0
4.185950000000035 0.5237099999999979 0.0
4.22269999999962 0.5216200000000215 0.0
4.259449999999689 0.5195300000000176 0.0
4.296199999999274 0.5174400000000412 0.0
4.332949999999307 0.5153500000000395 0.0
4.369699999999686 0.5132600000000178 0.0
4.406449999999271 0.5111700000000414 0.0
4.443200000000032 0.5090799999999982 0.0
4.47994999999962 0.5069900000000217 0.0
4.85335999999993 0.5003000000000002 0.0
4.890019999999688 0.5003000000000002 0.0
4.926679999999445 0.5003000000000002 0.0
4.963339999999202 0.5003000000000002 0.0
4.99999999999948 0.5003000000000002 0.0
5.036659999999757 0.5003000000000002 0.0
5.073319999999861 0.5003000000000002 0.0
5.109979999999966 0.5003000000000002 0.0
5.14664000000007 0.5003000000000002 0.0
5.520050000000034 0.506990000000002 0.0
5.556799999999619 0.5090799999999784 0.0
5.593549999999689 0.5111699999999824 0.0
5.630299999999274 0.5132599999999587 0.0
5.667049999999306 0.5153499999999605 0.0
5.703799999999686 0.5174399999999821 0.0
5.740549999999271 0.5195299999999585 0.0
5.777300000000031 0.5216200000000017 0.0
5.814049999999619 0.5237099999999782 0.0
6.185899999999967 0.5686699999999937 0.0
6.223200000000103 0.5760400000000205 0.0
6.26049999999988 0.5834099999999763 0.0
6.297799999999683 0.5907799999999372 0.0
6.335099999999809 0.5981499999999621 0.0
6.372399999999617 0.6055199999999242 0.0
6.409700000000087 0.6128900000000171 0.0
6.446999999999897 0.6202599999999795 0.0
6.484300000000033 0.6276300000000062 0.0
6.845363636363626 0.7294272727272689 0.0
6.880427272727252 0.7424545454545377 0.0
6.915490909090877 0.7554818181818067 0.0
6.950554545454437 0.7685090909090506 0.0
6.985618181818142 0.7815363636363493 0.0
7.020681818181658 0.7945636363635772 0.0
7.055745454545396 0.8075909090908875 0.0
7.090809090908994 0.8206181818181463 0.0
7.125872727272663 0.8336454545454308 0.0
7.160936363636331 0.8466727272727155 0.0
7.50692 0.9860500000000001 0.0
7.545039999999653 0.987599999999986 0.0
7.583159999999308 0.989149999999972 0.0
7.621279999999653 0.990699999999986 0.0
7.659399999999653 0.992249999999986 0.0
7.697519999999654 0.993799999999986 0.0
7.735639999999999 0.9953500000000001 0.0
7.773759999999654 0.9968999999999859 0.0
7.811879999999999 0.99845 0.0
8.189361702128089 1.0 0.0
8.228723404256021 1.0 0.0
8.268085106383511 1.0 0.0
8.307446808511347 1.0 0.0
8.346808510638837 1.0 0.0
8.386170212766556 1.0 0.0
8.425531914894163 1.0 0.0
8.464893617021728 1.0 0.0
8.504255319149491 1.0 0.0
8.543617021276981 1.0 0.0
8.582978723404818 1.0 0.0
8.622340425532308 1.0 0.0
8.661702127660144 1.0 0.0
8.701063829787634 1.0 0.0
8.740425531915472 1.0 0.0
8.779787234042962 1.0 0.0
8.819148936170695 1.0 0.0
8.858510638298288 1.0 0.0
8.897872340425867 1.0 0.0
8.937234042553614 1.0 0.0
8.976595744681104 1.0 0.0
9.01595744680894 1.0 0.0
9.05531914893643 1.0 0.0
9.094680851064266 1.0 0.0
9.134042553191756 1.0 0.0
9.173404255319593 1.0 0.0
9.212765957447777 1.0 0.0
9.252127659575525 1.0 0.0
9.291489361703103 1.0 0.0
9.330851063830696 1.0 0.0
9.37021276595843 1.0 0.0
9.40957446808592 1.0 0.0
9.448936170213758 1.0 0.0
9.488297872341246 1.0 0.0
9.527659574469084 1.0 0.0
9.567021276596574 1.0 0.0
9.60638297872441 1.0 0.0
9.6457446808519 1.0 0.0
9.685106382979662 1.0 0.0
9.724468085107226 1.0 0.0
9.763829787234833 1.0 0.0
9.803191489362552 1.0 0.0
9.842553191490042 1.0 0.0
9.881914893617878 1.0 0.0
9.921276595745368 1.0 0.0
9.960638297872762 1.0 0.0
1.85511112605661 0.9611771432347338 0.0
1.87009618943224 0.9250000000001632 0.0
1.89393398282189 0.8939339828221454 0.0
1.924999999999842 0.8700961894324258 0.0
1.96117714323457 0.8551111260566537 0.0
2.51911222351653 0.9468943483281596 0.0
2.517261556501524 0.9074371004566797 0.0
2.525776366502026 0.8688651237292935 0.0
2.544066041990905 0.8338538805560812 0.0
2.570861958867948 0.8048318507040559 0.0
3.183399471121889 0.6773269167743563 0.0
3.187540640753236 0.6379663627768488 0.0
3.201835045303677 0.6010600964327384 0.0
3.225286972057683 0.569178916585472 0.0
3.256262818048977 0.5445435870349058 0.0
3.851311808445927 0.5217631357369752 0.0
3.861560068046178 0.4835774762734121 0.0
3.881432344049533 0.449397598275363 0.0
3.909547162863183 0.4215996059626037 0.0
3.94395004882614 0.4021159499676259 0.0
4.520996695771619 0.4658028333951991 0.0
4.53530678067777 0.4291658097571295 0.0
4.558646801051933 0.3975067908214496 0.0
4.589412725279813 0.3730015273561684 0.0
4.625490180094372 0.3573341317450809 0.0
5.188792203110742 0.4613608817416055 0.0
5.204215644069836 0.4251871800409458 0.0
5.228510353354086 0.3942649174043062 0.0
5.260006687237601 0.3707192133874752 0.0
5.296540073359643 0.3561682366420743 0.0
5.860011021539801 0.4873401270919612 0.0
5.878953813569356 0.4526244912484382 0.0
5.906311508814615 0.4240664581795365 0.0
5.94018225175748 0.4036513286316637 0.0
5.978211412052326 0.3927983240146977 0.0
6.536647498529492 0.5983695458969855 0.0
6.560754133038625 0.5669515963705687 0.0
6.592240694919373 0.5429346481718567 0.0
6.628913908052386 0.5279916625832858 0.0
6.668219207005813 0.523163531066366 0.0
7.216556713460987 0.8259527451430548 0.0
7.245211027874307 0.7987427112527251 0.0
7.279975409646859 0.7799572530799906 0.0
7.318438515914653 0.7708993761205898 0.0
7.357932451203028 0.7721973569569427 0.0
7.855111126056608 0.9611771432347389 0.0
7.87009618943239 0.9249999999999031 0.0
7.893933982821849 0.893933982822186 0.0
7.924999999999724 0.870096189432493 0.0
7.961177143234544 0.8551111260566602 0.0
2.038822856765458 0.8551111260566613 0.0
2.074999999999886 0.8700961894322686 0.0
2.106066017177859 0.8939339828218953 0.0
2.129903810567719 0.9250000000000924 0.0
2.144888873943354 0.9611771432345996 0.0
2.642072213105018 0.7722253821844589 0.0
2.68155866996913 0.7709276471286509 0.0
2.720014493007171 0.7799838089221203 0.0
2.754772291926727 0.7987657099507169 0.0
2.783421180466018 0.8259705914503371 0.0
3.331781228837649 0.5232065749202437 0.0
3.371075251522289 0.5280333212977997 0.0
3.407737943504146 0.5429720199040406 0.0
3.439215472227839 0.5669820778975886 0.0
3.463315190802363 0.5983910139513634 0.0
4.021785797379926 0.3928173305182819 0.0
4.059810087100174 0.4036689451393993 0.0
4.093676492056691 0.424081460024671 0.0
4.121030683473297 0.4526358355315954 0.0
4.139971049410406 0.4873470251801275 0.0
4.703463602180634 0.3561536952559329 0.0
4.740000641190358 0.3707061269192393 0.0
4.771500124319702 0.3942541852163063 0.0
4.795797262775971 0.4251795396981159 0.0
4.811222245889969 0.4613568583244396 0.0
5.37450551763444 0.3573491929815369 0.0
5.410579205991976 0.3730149529290054 0.0
5.44134191828321 0.3975176580649515 0.0
5.464679501979187 0.429173371825681 0.0
5.478988092924676 0.4658065705894096 0.0
6.056057512867302 0.4020971861494807 0.0
6.090465040120479 0.4215834706823507 0.0
6.118583651902696 0.4493852132201999 0.0
6.138458608873377 0.4835697024226929 0.0
6.14870825106575 0.521760513510746 0.0
6.743759676449819 0.5445060199603367 0.0
6.774744567243897 0.569148542912274 0.0
6.798203341851458 0.6010390319154575 0.0
6.812501920301792 0.6379560747176215 0.0
6.816644299135661 0.6773281218144781 0.0
[...]
POINT_DATA 2757
VECTORS vector double
0.0 0.0 0.0
0.0 0.0 0.0
0.0 0.0 0.0
0.0 0.0 0.0
0.0 0.0 0.0
0.0 0.0 0.0
0.0 0.0 0.0
0.0 0.0 0.0
0.0 0.0 0.0
0.0 0.0 0.0
0.0 0.0 0.0
0.0 0.0 0.0
0.0 0.0 0.0
0.0 0.0 0.0
0.0 0.0 0.0
0.0 0.0 0.0
0.0 0.0 0.0
0.0 0.0 0.0
0.0 0.0 0.0
0.0 0.0 0.0
0.0 0.0 0.0
0.0 0.0 0.0
0.0 0.0 0.0
0.0 0.0 0.0
0.0 0.0 0.0
0.0 0.0 0.0
0.0 0.0 0.0
0.0 0.0 0.0
0.0 0.0 0.0
0.0 0.0 0.0
0.0 0.0 0.0
0.0 0.0 0.0
1.5 -0.00173848363651 0.0
1.12408079681 6.79851996649e-06 0.0
0.0 0.0 0.0
0.0 0.0 0.0
0.0 0.0 0.0
0.0 0.0 0.0
0.0 0.0 0.0
0.0 0.0 0.0
0.0 0.0 0.0
0.0 0.0 0.0
0.0 0.0 0.0
0.0 0.0 0.0
0.0 0.0 0.0
0.0 0.0 0.0
0.0 0.0 0.0
0.0 0.0 0.0
0.0 0.0 0.0
0.0 0.0 0.0
0.0 0.0 0.0
0.0 0.0 0.0
0.0 0.0 0.0
0.0 0.0 0.0
0.0 0.0 0.0
0.0 0.0 0.0
0.0 0.0 0.0
0.0 0.0 0.0
0.0 0.0 0.0
0.0 0.0 0.0
0.0 0.0 0.0
0.0 0.0 0.0
0.0 0.0 0.0
0.0 0.0 0.0
0.0 0.0 0.0
0.0 0.0 0.0
0.0 0.0 0.0
0.0 0.0 0.0
0.0 0.0 0.0
0.0 0.0 0.0
0.0 0.0 0.0
0.0 0.0 0.0
0.0 0.0 0.0
0.0 0.0 0.0
0.0 0.0 0.0
0.0 0.0 0.0
0.0 0.0 0.0
0.0 0.0 0.0
0.0 0.0 0.0
0.0 0.0 0.0
0.0 0.0 0.0
0.0 0.0 0.0
0.0 0.0 0.0
0.0 0.0 0.0
0.0 0.0 0.0
0.0 0.0 0.0
0.0 0.0 0.0
0.0 0.0 0.0
0.0 0.0 0.0
0.0 0.0 0.0
0.0 0.0 0.0
0.0 0.0 0.0
0.0 0.0 0.0
0.0 0.0 0.0
0.0 0.0 0.0
0.0 0.0 0.0
0.0 0.0 0.0
0.0 0.0 0.0
0.0 0.0 0.0
0.0 0.0 0.0
0.0 0.0 0.0
0.0 0.0 0.0
0.0 0.0 0.0
0.0 0.0 0.0
0.0 0.0 0.0
0.0 0.0 0.0
0.0 0.0 0.0
0.0 0.0 0.0
0.0 0.0 0.0
0.0 0.0 0.0
0.0 0.0 0.0
0.0 0.0 0.0
0.0 0.0 0.0
0.0 0.0 0.0
0.0 0.0 0.0
0.0 0.0 0.0
0.0 0.0 0.0
0.0 0.0 0.0
0.0 0.0 0.0
0.0 0.0 0.0
0.0 0.0 0.0
0.0 0.0 0.0
0.0 0.0 0.0
0.0 0.0 0.0
0.0 0.0 0.0
0.0 0.0 0.0
0.0 0.0 0.0
0.0 0.0 0.0
0.0 0.0 0.0
0.0 0.0 0.0
0.0 0.0 0.0
0.0 0.0 0.0
0.0 0.0 0.0
0.0 0.0 0.0
0.0 0.0 0.0
0.0 0.0 0.0
0.0 0.0 0.0
0.0 0.0 0.0
0.0 0.0 0.0
0.0 0.0 0.0
0.0 0.0 0.0
0.0 0.0 0.0
0.0 0.0 0.0
0.0 0.0 0.0
0.0 0.0 0.0
0.0 0.0 0.0
0.0 0.0 0.0
0.0 0.0 0.0
0.0 0.0 0.0
0.0 0.0 0.0
0.0 0.0 0.0
0.0 0.0 0.0
0.0 0.0 0.0
0.0 0.0 0.0
0.0 0.0 0.0
0.0 0.0 0.0
0.0 0.0 0.0
0.0 0.0 0.0
0.0 0.0 0.0
0.0 0.0 0.0
0.0 0.0 0.0
0.0 0.0 0.0
0.0 0.0 0.0
0.0 0.0 0.0
0.0 0.0 0.0
0.0 0.0 0.0
0.0 0.0 0.0
0.0 0.0 0.0
0.0 0.0 0.0
0.0 0.0 0.0
0.0 0.0 0.0
0.0 0.0 0.0
0.0 0.0 0.0
0.0 0.0 0.0
0.0 0.0 0.0
0.0 0.0 0.0
0.0 0.0 0.0
0.0 0.0 0.0
0.0 0.0 0.0
0.0 0.0 0.0
0.0 0.0 0.0
0.0 0.0 0.0
0.0 0.0 0.0
0.0 0.0 0.0
0.0 0.0 0.0
0.0 0.0 0.0
0.0 0.0 0.0
0.0 0.0 0.0
0.0 0.0 0.0
0.0 0.0 0.0
0.0 0.0 0.0
0.0 0.0 0.0
0.0 0.0 0.0
0.0 0.0 0.0
0.0 0.0 0.0
0.0 0.0 0.0
0.0 0.0 0.0
0.0 0.0 0.0
0.0 0.0 0.0
0.0 0.0 0.0
0.0 0.0 0.0
0.0 0.0 0.0
0.0 0.0 0.0
0.0 0.0 0.0
0.0 0.0 0.0
0.0 0.0 0.0
0.0 0.0 0.0
0.0 0.0 0.0
0.0 0.0 0.0
0.0 0.0 0.0
0.0 0.0 0.0
0.0 0.0 0.0
0.0 0.0 0.0
0.0 0.0 0.0
0.0 0.0 0.0
0.0 0.0 0.0
0.0 0.0 0.0
0.0 0.0 0.0
0.0 0.0 0.0
0.0 0.0 0.0
0.0 0.0 0.0
0.0 0.0 0.0
0.0 0.0 0.0
0.0 0.0 0.0
0.0 0.0 0.0
0.0 0.0 0.0
0.0 0.0 0.0
0.0 0.0 0.0
0.0 0.0 0.0
0.0 0.0 0.0
0.0 0.0 0.0
0.0 0.0 0.0
0.0 0.0 0.0
0.0 0.0 0.0
0.0 0.0 0.0
0.0 0.0 0.0
0.0 0.0 0.0
0.0 0.0 0.0
0.0 0.0 0.0
0.0 0.0 0.0
0.0 0.0 0.0
0.0 0.0 0.0
0.0 0.0 0.0
0.0 0.0 0.0
0.0 0.0 0.0
0.0 0.0 0.0
0.0 0.0 0.0
0.0 0.0 0.0
0.0 0.0 0.0
0.0 0.0 0.0
0.0 0.0 0.0
0.0 0.0 0.0
0.0 0.0 0.0
0.0 0.0 0.0
0.0 0.0 0.0
0.0 0.0 0.0
0.0 0.0 0.0
0.0 0.0 0.0
0.0 0.0 0.0
0.0 0.0 0.0
0.0 0.0 0.0
0.0 0.0 0.0
0.0 0.0 0.0
0.0 0.0 0.0
0.0 0.0 0.0
0.0 0.0 0.0
0.0 0.0 0.0
0.0 0.0 0.0
0.0 0.0 0.0
0.0 0.0 0.0
0.0 0.0 0.0
0.0 0.0 0.0
0.0 0.0 0.0
0.0 0.0 0.0
0.0 0.0 0.0
0.0 0.0 0.0
0.0 0.0 0.0
0.0 0.0 0.0
0.0 0.0 0.0
0.0 0.0 0.0
0.0 0.0 0.0
0.0 0.0 0.0
0.0 0.0 0.0
0.0 0.0 0.0
0.0 0.0 0.0
0.0 0.0 0.0
0.0 0.0 0.0
0.0 0.0 0.0
0.0 0.0 0.0
0.0 0.0 0.0
0.0 0.0 0.0
1.63336803965 -0.000622726766931 0.0
1.61842553277 0.00053349225937 0.0
1.61058580342 -0.0010365309135 0.0
1.58818629602 0.00286425696089 0.0
1.57351991777 -0.00962823341352 0.0
1.53653387421 0.00693960778229 0.0
1.48578200066 -0.00426833453352 0.0
1.44652681805 5.5796680101e-05 0.0
1.38260180363 0.0073891037871 0.0
1.3249276351 -0.00749069584835 0.0
1.2807004265 0.000241926816598 0.0
1.23987692549 -0.000785123696484 0.0
1.22341177801 0.00084868428764 0.0
1.20990513296 -0.00180961302441 0.0
1.20507985762 0.000711836909446 0.0
1.20731590742 -0.000447743839559 0.0
1.21340955642 2.06530012594e-05 0.0
1.2259794778 -0.0011211974748 0.0
1.243151065 0.000595791451555 0.0
1.2583591765 0.000821748654809 0.0
1.27936842675 -0.00222886982678 0.0
1.30588801608 0.00189879028243 0.0
1.32540783719 0.000542681361577 0.0
1.35878145809 -0.00324494259586 0.0
1.3985183797 0.000372703002834 0.0
1.42977286634 0.00271434988194 0.0
1.47720558556 0.00663691762679 0.0
1.5305022771 -0.0074408303714 0.0
1.60667409142 0.00562982308803 0.0
1.68162627264 -0.0068663701398 0.0
1.78658646166 -0.00723640711808 0.0
1.87955550992 0.00556505184315 0.0
1.96519760612 0.00671796148104 0.0
2.04950729822 -0.00762234245527 0.0
2.15233353727 -0.00602624303451 0.0
2.24863236832 0.0031564429288 0.0
2.35638971642 0.00320235699271 0.0
2.46514794186 -0.002293610388 0.0
2.59039917827 0.00209611939137 0.0
2.68626585716 0.00230014123352 0.0
2.76516427273 -0.00546499592942 0.0
2.82219666427 0.00358358626831 0.0
2.87847351385 -0.00251761345736 0.0
2.96136422465 0.00630074465681 0.0
3.03005105082 9.01720830883e-05 0.0
3.12686234082 -0.0075361422091 0.0
3.19498190404 0.000656696178965 0.0
3.21516609819 0.00143046235475 0.0
3.23039245038 0.00163824733757 0.0
3.2468057209 -0.000647730945239 0.0
3.28707565294 -0.00284858838663 0.0
3.33192563909 0.000619249753252 0.0
3.36112112646 0.00095825031815 0.0
3.36698631464 0.000600001999698 0.0
3.35202205247 0.000671494066039 0.0
3.32844687711 -0.00278581095458 0.0
3.29585160045 0.000676619711509 0.0
3.27458285683 -0.00311376156152 0.0
3.23311822146 0.00532704137672 0.0
3.17488554988 -0.0011172225098 0.0
3.10980911875 -0.00237264309232 0.0
3.02479617081 0.00110993625206 0.0
2.93494872287 -0.00136784856952 0.0
2.82395803255 -0.00363953703376 0.0
2.70590415988 0.00841528865356 0.0
2.56770024676 0.00926117601202 0.0
2.45137827713 -0.00952818546415 0.0
2.33635427265 -0.00752882470025 0.0
2.21133080846 0.0105544666896 0.0
2.07058770243 0.00451757199332 0.0
1.92306388694 0.0191433572381 0.0
1.8322008119 -0.0383922569925 0.0
1.74047938797 0.0216379659318 0.0
1.61863359478 -0.00416423589748 0.0
1.57033002404 -0.0065490879675 0.0
1.48904879933 0.00368390466958 0.0
1.42449917749 7.20439893636e-05 0.0
1.3892952294 -0.00376331499083 0.0
1.34195796946 0.00437668494876 0.0
1.30378669497 -0.000912586123627 0.0
1.27429676943 0.000661937656884 0.0
1.25064597611 -0.00197133943755 0.0
1.22533265431 -0.00175477838686 0.0
1.21029276372 0.000427517110916 0.0
1.19260971355 -0.000728781299119 0.0
1.17515590602 0.000212374001477 0.0
1.16507266413 -0.000689634113197 0.0
1.15440360159 0.000254347958012 0.0
1.14752608291 -0.000765823716218 0.0
1.13958748472 0.000580365432689 0.0
1.13423739659 -0.000147060205516 0.0
1.13079360273 -1.23541851713e-05 0.0
1.12822312498 6.12314202233e-05 0.0
1.12640067761 -6.26407133718e-05 0.0
1.12531452255 -4.05977328904e-05 0.0
1.12481342216 3.01007476033e-05 0.0
1.12442775643 -5.55208351585e-05 0.0
1.12411776331 1.63587770785e-05 0.0
1.12404632438 -6.12319025206e-06 0.0
1.485 -0.0027796396776 0.0
1.44 -0.00565321262008 0.0
1.365 -0.0162770553174 0.0
1.26 -0.0147860033574 0.0
1.125 -0.00409472873885 0.0
0.960000000002 -0.0135706291268 0.0
0.765000000002 -0.00978961122401 0.0
0.540000000001 -0.0190032598929 0.0
0.285000000001 -0.00539453710566 0.0
1.12395635228 1.95014453639e-05 0.0
1.12404634668 1.25205031118e-05 0.0
1.12406477502 1.81516616718e-05 0.0
1.12414714858 1.31765163207e-05 0.0
1.12439705891 1.81154917304e-05 0.0
1.12440717595 9.09958024263e-05 0.0
1.12355423155 0.000212774544978 0.0
1.11982628401 0.000423696904679 0.0
1.10682518251 0.0018182027776 0.0
1.07637859581 0.0050351580694 0.0
1.00739699784 0.007760142251 0.0
0.905834318869 0.00866923274577 0.0
0.741938457547 -0.000376748428009 0.0
0.500441292405 0.0133979786133 0.0
0.197941531026 0.0155424547236 0.0
1.17522370717 0.0928255581015 0.0
1.11939394414 -0.000197261086837 0.0
1.11661037844 0.0356710710166 0.0
1.43170858579 -0.274528219744 0.0
1.48281169339 0.419862005137 0.0
1.1230055029 -0.0677589054911 0.0
1.25090905726 -0.117669117478 0.0
1.20196180296 0.215023327855 0.0
1.08686467114 0.0952171243992 0.0
2.02930474758 -0.257879838903 0.0
1.95297505131 0.292521025783 0.0
1.24178737427 0.119823403484 0.0
1.09318806247 0.00446940653499 0.0
1.22308564402 -0.108970481671 0.0
2.50325020699 0.0892778591227 0.0
2.59053098222 -0.0860056987149 0.0
1.04887791189 0.146409418232 0.0
2.7070499467 0.0116228279985 0.0
1.05123570977 0.08287316034 0.0
0.962788690987 0.150713849406 0.0
1.05491223692 -0.0064244516733 0.0
1.32953868436 -0.177505402984 0.0
1.27310614903 0.316095363891 0.0
1.04747946531 -0.00168886349114 0.0
0.859327019865 -0.104392430267 0.0
1.65156022419 -0.393849074245 0.0
1.79778357292 0.382411353944 0.0
1.01495406761 0.0206743221437 0.0
1.01130785105 -0.00556781243222 0.0
0.442171710354 0.100508423226 0.0
0.519268773699 -0.0111859873774 0.0
1.12261871163 -0.0751745742449 0.0
1.02060311904 0.107884459743 0.0
2.04210682196 0.292893445309 0.0
2.04408087527 -0.239364910078 0.0
1.12557086596 0.00950284824184 0.0
0.835476415719 0.10183992307 0.0
0.998534401964 -0.177743310361 0.0
1.08735276478 -0.39706936768 0.0
0.627176941026 0.218401391308 0.0
0.611579499626 0.277459607713 0.0
2.84793369715 0.0653452853563 0.0
2.75307217059 -0.0899456084733 0.0
1.27805911277 -0.0643961625464 0.0
1.32914145835 0.108873010614 0.0
1.15670316451 0.0375356385696 0.0
0.916091886567 -0.141281380809 0.0
0.806141782776 0.215223334134 0.0
1.16967275714 0.0149007753735 0.0
0.895081796777 0.113240884427 0.0
1.13077220849 0.109756368966 0.0
0.915634442467 -0.0106466481734 0.0
0.911013012834 -0.000575060456029 0.0
1.12364125379 0.000130254499281 0.0
1.2064959793 -0.0391408001584 0.0
0.851580069961 0.034755099535 0.0
0.831646335031 0.0524028440412 0.0
1.11693216922 -0.180592938177 0.0
1.32562232968 -0.103730509976 0.0
1.61250578775 0.222898092052 0.0
1.42583597762 -0.113767183859 0.0
1.2348865961 0.0664495342853 0.0
2.20188280695 -0.436401288894 0.0
2.1315647475 0.226253612215 0.0
0.869032332168 0.00499142754254 0.0
1.39112888301 0.203258963438 0.0
2.64350991016 0.14486054861 0.0
2.66188109922 -0.304732177788 0.0
2.72011825498 -0.0884591756596 0.0
2.5818650382 -0.287195872926 0.0
2.59004362729 0.110788239592 0.0
1.33294108707 0.0582528269301 0.0
1.25932002378 0.148529162478 0.0
3.08726586804 -0.129872534837 0.0
3.18425601702 0.0259321301367 0.0
1.12222913966 -0.00146981960902 0.0
1.05739170437 -0.0405866973636 0.0
0.332195782331 0.103250020143 0.0
0.908589900752 -0.192874588407 0.0
0.214019250713 -0.0589528831465 0.0
0.827321479429 -0.0104544945824 0.0
0.851538537224 -0.0429451964835 0.0
1.25919305821 -0.195596067215 0.0
1.13904372268 0.0183463533466 0.0
0.990789677084 0.0501870591008 0.0
0.567196464638 0.0648313208218 0.0
3.02346005019 0.0149000064015 0.0
0.484949107208 0.0476416059251 0.0
0.942347965568 -0.0523055108603 0.0
0.870802938064 0.0264941933559 0.0
0.716945248801 0.0580286583026 0.0
0.779348692608 0.0117478213616 0.0
0.58675426648 0.0462975550775 0.0
1.1239195418 0.00260326018258 0.0
0.878945337612 0.274322004705 0.0
0.22055954548 -0.00519454660118 0.0
0.0856235549481 0.00508233813663 0.0
1.18038383434 0.134820002313 0.0
1.25470525216 0.1493452108 0.0
1.26263207971 -0.0995594621808 0.0
0.71781230562 0.107953565663 0.0
0.854750008396 0.225045274802 0.0
1.11873590734 0.00474121272601 0.0
0.905864104924 0.167488355275 0.0
1.92684972399 0.260907137868 0.0
1.5771263501 -0.168015067821 0.0
1.10479456264 -0.00233832745458 0.0
0.72597766879 0.000263859291265 0.0
0.713008632177 -0.00891830520908 0.0
1.2102770432 0.0815215194047 0.0
1.14350930541 0.069204446823 0.0
0.730239242913 0.00123882353462 0.0
1.41345889295 0.377715029469 0.0
0.520796992872 0.0984738229956 0.0
0.28913711974 0.0860865914937 0.0
1.56841077141 0.314902606495 0.0
2.21284557879 0.261764419066 0.0
1.89337822902 -0.470961093578 0.0
1.86584320799 -0.21426073361 0.0
0.596134983747 -0.184141124399 0.0
1.37365467748 0.105144840484 0.0
1.10099909583 0.0197818948761 0.0
0.0244202067375 0.0414810251192 0.0
1.08900720323 -0.222575181464 0.0
1.079307094 0.0536135937104 0.0
1.11396452276 -0.000910204367721 0.0
1.23994049372 -0.0558957824893 0.0
1.15823494355 -0.131567717502 0.0
1.10504658153 0.105477676089 0.0
0.802585178263 0.22951772877 0.0
1.19032167843 0.0552643216824 0.0
1.3933629281 -0.18674158936 0.0
1.27511091161 0.0853609936677 0.0
1.16057128474 -0.0990013878594 0.0
-0.0388548450143 -0.0988119825344 0.0
0.457689426603 -0.110448547819 0.0
0.601023379185 0.0261161078075 0.0
0.636177286185 0.00309300946052 0.0
1.9300161494 -0.168736410792 0.0
1.35394822516 0.237864542109 0.0
0.338539200481 -0.0304716638884 0.0
1.10572760816 -0.0038334288024 0.0
1.50518699756 -0.595500599465 0.0
0.758004288704 -0.00897485611783 0.0
1.05256662917 0.1783119312 0.0
1.10984156944 0.000631761516653 0.0
0.580292785077 0.0635722784755 0.0
0.695651181601 -0.0114027674396 0.0
0.48083660323 -0.226584076881 0.0
0.64895793618 0.0134913208402 0.0
-0.0340248565132 0.0667426833014 0.0
0.0748951439597 -0.00380841109747 0.0
0.0898120387072 0.0317493515944 0.0
1.21325188459 0.0905958364915 0.0
0.488713432705 -0.0397984657558 0.0
0.853551467933 -0.220700121515 0.0
1.16073736917 -0.028395750451 0.0
1.19568353552 -0.00572384066668 0.0
1.73175871993 0.0596280343981 0.0
2.30922605178 -0.0323530131922 0.0
1.12144287162 0.0178558365752 0.0
1.27155283435 -0.152377809401 0.0
1.1961956135 0.265600025359 0.0
0.962651803325 0.157412612801 0.0
1.08723235345 -0.0725680724795 0.0
1.29035724683 -0.0957429495336 0.0
1.32189322235 0.174162570447 0.0
0.935208658698 0.0247375579614 0.0
1.11356138867 0.0109517651849 0.0
0.645636315828 0.0136497996653 0.0
0.505500164268 0.0465706911863 0.0
2.55998309791 0.20036163014 0.0
2.09835937922 -0.143376978397 0.0
1.40340294254 0.397541092341 0.0
1.05709466189 0.00709822785922 0.0
1.1252107325 0.0238547584717 0.0
2.81029074139 0.159519549013 0.0
2.30229124003 -0.171750723865 0.0
1.05712679431 -0.0378790781494 0.0
0.0328992377772 0.00880505418817 0.0
0.00236397281358 0.0236899927381 0.0
0.511275664244 0.0227565485303 0.0
1.5413390854 0.122751693986 0.0
1.42494588688 0.0862411604276 0.0
1.14455344991 0.128425740429 0.0
0.509082229711 -0.10793107792 0.0
0.336717421053 0.0961527353341 0.0
1.39048002274 -0.0568915639815 0.0
0.952463820745 -0.0992270226875 0.0
1.13648000394 0.0428672259889 0.0
1.24299504637 -0.111849140601 0.0
1.04567446493 0.0477449111137 0.0
0.742496414317 -0.0368504192967 0.0
0.0541138583714 -0.0251361759493 0.0
1.31796111578 -0.0424878186318 0.0
0.644516421637 0.0164280167765 0.0
2.82545060225 -0.127575623531 0.0
1.36463591061 -0.129757858471 0.0
1.12400316813 -0.000283038608178 0.0
1.04528178103 -0.00706910239295 0.0
1.47730573254 0.277121870805 0.0
1.12292634292 0.000961062467634 0.0
2.01947388275 -0.287268095594 0.0
1.47234512578 0.243337824188 0.0
0.612870732559 0.0507536346439 0.0
1.3227540856 -0.231852040591 0.0
1.20924074781 0.128558486472 0.0
0.38018321604 0.184730408975 0.0
0.361496157052 -0.0535680158971 0.0
-0.123930416123 -0.0538358131683 0.0
0.428162495041 0.00797356764594 0.0
0.496205234968 -0.00783396252677 0.0
0.586456528526 -0.00403380117634 0.0
1.52127797156 0.0112443832528 0.0
0.724909965853 0.00604261721973 0.0
0.333036643103 0.0654544210267 0.0
1.0561944612 0.0887007084516 0.0
1.13861992873 0.0427463333702 0.0
0.423245464895 0.0563415506546 0.0
1.20274275725 -0.0727591129224 0.0
0.562496186527 0.142312352761 0.0
0.707531701605 -0.0577828482631 0.0
1.02921968268 0.126505922241 0.0
1.48036991979 -0.361961508714 0.0
0.615756042164 -0.0134735391079 0.0
1.13391724503 0.00877468307539 0.0
1.11081153799 -0.0011331948785 0.0
1.12682245066 0.0041398584025 0.0
1.12099788009 -0.00122327162424 0.0
1.47062905133 -0.172461022527 0.0
1.86595628549 0.188578581617 0.0
2.70467862758 -0.18096365221 0.0
1.08594006247 0.0351432335178 0.0
2.28573708197 0.0756664110864 0.0
2.32326926645 -0.553514003782 0.0
1.18240515979 0.0257664436873 0.0
1.72352029472 0.301602629131 0.0
1.49814759714 -0.0964281200185 0.0
1.1240847561 0.000775709524993 0.0
2.61090098059 -0.31050740135 0.0
2.31356380691 0.0860310181859 0.0
0.496490711545 -0.0271680880646 0.0
1.11208806414 -0.00316483516137 0.0
1.23469325926 -0.0250162413444 0.0
1.12408875901 6.77702740747e-05 0.0
1.26589627792 -0.0324286260487 0.0
1.11744570826 0.0648804115338 0.0
1.15421157318 0.0160391003865 0.0
1.96604602423 0.122096534969 0.0
0.805072640973 -0.233669492445 0.0
1.09333364412 -0.138322820766 0.0
1.0150630724 0.0995130918199 0.0
1.31212880226 0.0571735949395 0.0
1.01304291741 0.374715104904 0.0
1.27428210717 -0.316853003439 0.0
0.962174003435 0.125737678763 0.0
1.00947720305 -0.000763061470036 0.0
0.574125639446 0.00122044359914 0.0
1.21605167708 0.0395083814303 0.0
2.83853123322 -0.00160126363814 0.0
1.72229419061 -0.223393148085 0.0
2.06365432188 0.282255773797 0.0
1.27007202055 0.0429764055076 0.0
0.976866945089 -0.0686589676173 0.0
1.06403811146 0.00173084515925 0.0
0.366304873338 0.058754231511 0.0
0.516239666579 0.00336805193921 0.0
0.918937065363 0.0654826498764 0.0
1.18740360361 0.398201420761 0.0
0.503620246267 0.00452034020188 0.0
1.20762715312 0.025520150774 0.0
0.582258413152 0.0148200505683 0.0
1.12322381867 -0.194479769361 0.0
0.856879937992 -0.0253258647121 0.0
2.42758585715 0.191065075494 0.0
0.956567071183 -0.21877642898 0.0
1.99862063244 -0.142363995229 0.0
0.890194038883 0.220923483307 0.0
1.06757017103 -0.00246582037269 0.0
1.17272845606 0.137006750919 0.0
3.15996845438 -0.0416280929566 0.0
3.14722135067 -0.00633672010379 0.0
1.28662187013 0.0824258291096 0.0
0.921634727043 0.0844198088842 0.0
1.76097372015 0.157717556845 0.0
0.864174027349 0.117878100523 0.0
1.15897261358 0.164875498226 0.0
0.399522332201 0.0250916890714 0.0
1.23231852781 -0.103113161481 0.0
2.894874946 -0.0844769049178 0.0
3.23102963552 0.0310490159194 0.0
2.92756146923 0.136912351571 0.0
2.48416923018 -0.204590974524 0.0
1.42918064524 -0.576091104523 0.0
0.748768271287 0.0917141546062 0.0
1.05449798809 -0.170228729748 0.0
0.618928147892 0.00408664543679 0.0
1.50291587951 0.0454356795498 0.0
1.12130071552 0.00251694447075 0.0
0.188050437646 0.0334653697466 0.0
-0.138240982518 0.0496824894537 0.0
1.73510899045 -0.226495738797 0.0
1.05079854109 -0.00209176477179 0.0
0.262631238496 -0.0978339560864 0.0
-0.100552815016 -0.0849103989779 0.0
1.39797538518 0.0862900483652 0.0
1.54986818702 -0.21704578618 0.0
0.942672879433 0.13806089109 0.0
0.807641534399 -0.535342424833 0.0
1.83269904148 0.37430163444 0.0
1.1216801648 0.142776660192 0.0
1.16401777239 -0.0581037191436 0.0
1.25003950419 -0.0861064658801 0.0
0.477013275351 -0.0236057399303 0.0
1.02255612636 0.038725207942 0.0
1.30737523804 0.22642265123 0.0
1.29392411873 -0.121157648921 0.0
0.334733360319 0.116005128545 0.0
0.886609180978 0.148312653415 0.0
1.12326667885 -0.000872710072784 0.0
1.18637019484 0.161990609106 0.0
1.35746022669 0.270754222393 0.0
1.32786936335 -0.142110226518 0.0
-0.00190011600082 0.0119647832795 0.0
-0.0396716001788 -0.032419719958 0.0
1.15910264082 0.0155075844831 0.0
0.402196323948 0.142419745571 0.0
1.27131348358 0.119051460556 0.0
0.941888257877 -0.0039692895137 0.0
0.0333457518194 0.00221401936693 0.0
-0.00976961309162 0.0321910584862 0.0
1.68791151325 -0.376974063698 0.0
1.10301530297 0.117662821644 0.0
2.82250982976 -0.0583382755334 0.0
3.19183965711 0.0279337288779 0.0
1.12289115792 0.00570121723407 0.0
-0.0715696498064 -0.0358211798926 0.0
0.173289683261 -0.0224699561398 0.0
0.995592957219 0.212880871487 0.0
1.11147839968 -0.112600325152 0.0
0.378104923581 0.0200009316485 0.0
0.900852205768 -0.00632263069214 0.0
1.24355781731 0.100131056461 0.0
1.97400523147 -0.295236391769 0.0
1.16806056653 0.0689563701692 0.0
2.06568999504 0.315730853104 0.0
1.20828300611 -0.141724113186 0.0
0.849220576528 0.0253767085371 0.0
0.943719855503 0.00928738409312 0.0
2.05408665265 -0.209507730684 0.0
2.04499053543 0.2813102701 0.0