# vtk DataFile Version 2.0
2D Simulation Python
ASCII
DATASET UNSTRUCTURED_GRID
FIELD FieldData 1
NODES 1 2 int
2757 5098

POINTS 2757 double
0.0 1.0 0.0
1.85 1.0 0.0
2.15 1.0 0.0
2.5312 0.9845000000000002 0.0
2.804 0.8597000000000001 0.0
3.1897 0.7164000000000001 0.0
3.4784 0.6349999999999998 0.0
3.8514 0.5613000000000001 0.0
4.1492 0.5257999999999998 0.0
4.5167 0.5049000000000001 0.0
4.8167 0.5003000000000002 0.0
5.1833 0.5003000000000002 0.0
5.4833 0.5049000000000001 0.0
5.8508 0.5257999999999998 0.0
6.1486 0.5613000000000001 0.0
6.5216 0.6349999999999998 0.0
6.8103 0.7164000000000001 0.0
7.196 0.8597000000000001 0.0
7.4688 0.9845000000000002 0.0
7.85 1.0 0.0
8.15 1.0 0.0
10.0 1.0 0.0
2.0 0.8500000000000001 0.0
2.604294 0.7837869999999998 0.0
3.292593 0.5288279999999999 0.0
3.982247 0.3922810000000001 0.0
4.6644 0.3515969999999999 0.0
5.3356 0.3515969999999999 0.0
6.017753 0.3922810000000001 0.0
6.707407 0.5288279999999999 0.0
7.395706 0.7837869999999998 0.0
8.0 0.8500000000000001 0.0
0.0 0.0 0.0
10.0 0.0 0.0
0.09589869952291516 1.0 0.0
0.1888147635033504 1.0 0.0
0.2788409054415558 1.0 0.0
0.3660670333996566 1.0 0.0
0.4505802302878947 1.0 0.0
0.5324648790931192 1.0 0.0
0.6118027156217198 1.0 0.0
0.6886729728356462 1.0 0.0
0.7631523848471844 1.0 0.0
0.8353153174851218 1.0 0.0
0.9052338217649879 1.0 0.0
0.9729776980408794 1.0 0.0
1.038614580849525 1.0 0.0
1.102210010843471 1.0 0.0
1.163827479442682 1.0 0.0
1.223528508355988 1.0 0.0
1.281372692526642 1.0 0.0
1.337417785230084 1.0 0.0
1.391719743967992 1.0 0.0
1.444332799787133 1.0 0.0
1.495309459666087 1.0 0.0
1.544700643890327 1.0 0.0
1.592555642113107 1.0 0.0
1.638922222094626 1.0 0.0
1.683846722920012 1.0 0.0
1.727373960837219 1.0 0.0
1.769547395111623 1.0 0.0
1.810409141995569 1.0 0.0
2.188119999999948 0.9984500000000022 0.0
2.226239999999895 0.9969000000000042 0.0
2.264359999999671 0.9953500000000134 0.0
2.302479999999619 0.9938000000000156 0.0
2.340599999999567 0.9922500000000177 0.0
2.378719999999689 0.9907000000000128 0.0
2.416839999999636 0.989150000000015 0.0
2.454959999999585 0.987600000000017 0.0
2.493079999999706 0.9860500000000121 0.0
2.839063636363584 0.8466727272727468 0.0
2.874127272727092 0.8336454545455219 0.0
2.909190909090677 0.8206181818182683 0.0
2.944254545454222 0.8075909090910295 0.0
2.97931818181763 0.7945636363638415 0.0
3.014381818181257 0.7815363636365724 0.0
3.049445454545112 0.7685090909092184 0.0
3.084509090908891 0.7554818181818926 0.0
3.119572727272518 0.7424545454546234 0.0
3.154636363636221 0.729427272727326 0.0
3.515699999999767 0.6276300000000459 0.0
3.552999999999703 0.6202600000000585 0.0
3.59029999999978 0.6128900000000433 0.0
3.627599999999699 0.6055200000000595 0.0
3.664899999999474 0.5981500000001038 0.0
3.702199999999584 0.5907800000000822 0.0
3.739499999999687 0.5834100000000619 0.0
3.776799999999796 0.5760400000000403 0.0
3.814099999999899 0.56867000000002 0.0
4.185950000000035 0.5237099999999979 0.0
4.22269999999962 0.5216200000000215 0.0
4.259449999999689 0.5195300000000176 0.0
4.296199999999274 0.5174400000000412 0.0
4.332949999999307 0.5153500000000395 0.0
4.369699999999686 0.5132600000000178 0.0
4.406449999999271 0.5111700000000414 0.0
4.443200000000032 0.5090799999999982 0.0
4.47994999999962 0.5069900000000217 0.0
4.85335999999993 0.5003000000000002 0.0
4.890019999999688 0.5003000000000002 0.0
4.926679999999445 0.5003000000000002 0.0
4.963339999999202 0.5003000000000002 0.0
4.99999999999948 0.5003000000000002 0.0
5.036659999999757 0.5003000000000002 0.0
5.073319999999861 0.5003000000000002 0.0
5.109979999999966 0.5003000000000002 0.0
5.14664000000007 0.5003000000000002 0.0
5.520050000000034 0.506990000000002 0.0
5.556799999999619 0.5090799999999784 0.0
5.593549999999689 0.5111699999999824 0.0
5.630299999999274 0.5132599999999587 0.0
5.667049999999306 0.5153499999999605 0.0
5.703799999999686 0.5174399999999821 0.0
5.740549999999271 0.5195299999999585 0.0
5.777300000000031 0.5216200000000017 0.0
5.814049999999619 0.5237099999999782 0.0
6.185899999999967 0.5686699999999937 0.0
6.223200000000103 0.5760400000000205 0.0
6.26049999999988 0.5834099999999763 0.0
6.297799999999683 0.5907799999999372 0.0
6.335099999999809 0.5981499999999621 0.0
6.372399999999617 0.6055199999999242 0.0
6.409700000000087 0.6128900000000171 0.0
6.446999999999897 0.6202599999999795 0.0
6.484300000000033 0.6276300000000062 0.0
6.845363636363626 0.7294272727272689 0.0
6.880427272727252 0.7424545454545377 0.0
6.915490909090877 0.7554818181818067 0.0
6.950554545454437 0.7685090909090506 0.0
6.985618181818142 0.7815363636363493 0.0
7.020681818181658 0.7945636363635772 0.0
7.055745454545396 0.8075909090908875 0.0
7.090809090908994 0.8206181818181463 0.0
7.125872727272663 0.8336454545454308 0.0
7.160936363636331 0.8466727272727155 0.0
7.50692 0.9860500000000001 0.0
7.545039999999653 0.987599999999986 0.0
7.583159999999308 0.989149999999972 0.0
7.621279999999653 0.990699999999986 0.0
7.659399999999653 0.992249999999986 0.0
7.697519999999654 0.993799999999986 0.0
7.735639999999999 0.9953500000000001 0.0
7.773759999999654 0.9968999999999859 0.0
7.811879999999999 0.99845 0.0
8.189361702128089 1.0 0.0
8.228723404256021 1.0 0.0
8.268085106383511 1.0 0.0
8.307446808511347 1.0 0.0
8.346808510638837 1.0 0.0
8.386170212766556 1.0 0.0
8.425531914894163 1.0 0.0
8.464893617021728 1.0 0.0
8.504255319149491 1.0 0.0
8.543617021276981 1.0 0.0
8.582978723404818 1.0 0.0
8.622340425532308 1.0 0.0
8.661702127660144 1.0 0.0
8.701063829787634 1.0 0.0
8.740425531915472 1.0 0.0
8.779787234042962 1.0 0.0
8.819148936170695 1.0 0.0
8.858510638298288 1.0 0.0
8.897872340425867 1.0 0.0
8.937234042553614 1.0 0.0
8.976595744681104 1.0 0.0
9.01595744680894 1.0 0.0
9.05531914893643 1.0 0.0
9.094680851064266 1.0 0.0
9.134042553191756 1.0 0.0
9.173404255319593 1.0 0.0
9.212765957447777 1.0 0.0
9.252127659575525 1.0 0.0
9.291489361703103 1.0 0.0
9.330851063830696 1.0 0.0
9.37021276595843 1.0 0.0
9.40957446808592 1.0 0.0
9.448936170213758 1.0 0.0
9.488297872341246 1.0 0.0
9.527659574469084 1.0 0.0
9.567021276596574 1.0 0.0
9.60638297872441 1.0 0.0
9.6457446808519 1.0 0.0
9.685106382979662 1.0 0.0
9.724468085107226 1.0 0.0
9.763829787234833 1.0 0.0
9.803191489362552 1.0 0.0
9.842553191490042 1.0 0.0
9.881914893617878 1.0 0.0
9.921276595745368 1.0 0.0
9.960638297872762 1.0 0.0
1.85511112605661 0.9611771432347338 0.0
1.87009618943224 0.9250000000001632 0.0
1.89393398282189 0.8939339828221454 0.0
1.924999999999842 0.8700961894324258 0.0
1.96117714323457 0.8551111260566537 0.0
2.51911222351653 0.9468943483281596 0.0
2.517261556501524 0.9074371004566797 0.0
2.525776366502026 0.8688651237292935 0.0
2.544066041990905 0.8338538805560812 0.0
2.570861958867948 0.8048318507040559 0.0
3.183399471121889 0.6773269167743563 0.0
3.187540640753236 0.6379663627768488 0.0
3.201835045303677 0.6010600964327384 0.0
3.225286972057683 0.569178916585472 0.0
3.256262818048977 0.5445435870349058 0.0
3.851311808445927 0.5217631357369752 0.0
3.861560068046178 0.4835774762734121 0.0
3.881432344049533 0.449397598275363 0.0
3.909547162863183 0.4215996059626037 0.0
3.94395004882614 0.4021159499676259 0.0
4.520996695771619 0.4658028333951991 0.0
4.53530678067777 0.4291658097571295 0.0
4.558646801051933 0.3975067908214496 0.0
4.589412725279813 0.3730015273561684 0.0
4.625490180094372 0.3573341317450809 0.0
5.188792203110742 0.4613608817416055 0.0
5.204215644069836 0.4251871800409458 0.0
5.228510353354086 0.3942649174043062 0.0
5.260006687237601 0.3707192133874752 0.0
5.296540073359643 0.3561682366420743 0.0
5.860011021539801 0.4873401270919612 0.0
5.878953813569356 0.4526244912484382 0.0
5.906311508814615 0.4240664581795365 0.0
5.94018225175748 0.4036513286316637 0.0
5.978211412052326 0.3927983240146977 0.0
6.536647498529492 0.5983695458969855 0.0
6.560754133038625 0.5669515963705687 0.0
6.592240694919373 0.5429346481718567 0.0
6.628913908052386 0.5279916625832858 0.0
6.668219207005813 0.523163531066366 0.0
7.216556713460987 0.8259527451430548 0.0
7.245211027874307 0.7987427112527251 0.0
7.279975409646859 0.7799572530799906 0.0
7.318438515914653 0.7708993761205898 0.0
7.357932451203028 0.7721973569569427 0.0
7.855111126056608 0.9611771432347389 0.0
7.87009618943239 0.9249999999999031 0.0
7.893933982821849 0.893933982822186 0.0
7.924999999999724 0.870096189432493 0.0
7.961177143234544 0.8551111260566602 0.0
2.038822856765458 0.8551111260566613 0.0
2.074999999999886 0.8700961894322686 0.0
2.106066017177859 0.8939339828218953 0.0
2.129903810567719 0.9250000000000924 0.0
2.144888873943354 0.9611771432345996 0.0
2.642072213105018 0.7722253821844589 0.0
2.68155866996913 0.7709276471286509 0.0
2.720014493007171 0.7799838089221203 0.0
2.754772291926727 0.7987657099507169 0.0
2.783421180466018 0.8259705914503371 0.0
3.331781228837649 0.5232065749202437 0.0
3.371075251522289 0.5280333212977997 0.0
3.407737943504146 0.5429720199040406 0.0
3.439215472227839 0.5669820778975886 0.0
3.463315190802363 0.5983910139513634 0.0
4.021785797379926 0.3928173305182819 0.0
4.059810087100174 0.4036689451393993 0.0
4.093676492056691 0.424081460024671 0.0
4.121030683473297 0.4526358355315954 0.0
4.139971049410406 0.4873470251801275 0.0
4.703463602180634 0.3561536952559329 0.0
4.740000641190358 0.3707061269192393 0.0
4.771500124319702 0.3942541852163063 0.0
4.795797262775971 0.4251795396981159 0.0
4.811222245889969 0.4613568583244396 0.0
5.37450551763444 0.3573491929815369 0.0
5.410579205991976 0.3730149529290054 0.0
5.44134191828321 0.3975176580649515 0.0
5.464679501979187 0.429173371825681 0.0
5.478988092924676 0.4658065705894096 0.0
6.056057512867302 0.4020971861494807 0.0
6.090465040120479 0.4215834706823507 0.0
6.118583651902696 0.4493852132201999 0.0
6.138458608873377 0.4835697024226929 0.0
6.14870825106575 0.521760513510746 0.0
6.743759676449819 0.5445060199603367 0.0
6.774744567243897 0.569148542912274 0.0
6.798203341851458 0.6010390319154575 0.0
6.812501920301792 0.6379560747176215 0.0
6.816644299135661 0.6773281218144781 0.0
[...]
POINT_DATA 2757
VECTORS vector double
0.0 0.0 0.0
0.0 0.0 0.0
0.0 0.0 0.0
0.0 0.0 0.0
0.0 0.0 0.0
0.0 0.0 0.0
0.0 0.0 0.0
0.0 0.0 0.0
0.0 0.0 0.0
0.0 0.0 0.0
0.0 0.0 0.0
0.0 0.0 0.0
0.0 0.0 0.0
0.0 0.0 0.0
0.0 0.0 0.0
0.0 0.0 0.0
0.0 0.0 0.0
0.0 0.0 0.0
0.0 0.0 0.0
0.0 0.0 0.0
0.0 0.0 0.0
0.0 0.0 0.0
0.0 0.0 0.0
0.0 0.0 0.0
0.0 0.0 0.0
0.0 0.0 0.0
0.0 0.0 0.0
0.0 0.0 0.0
0.0 0.0 0.0
0.0 0.0 0.0
0.0 0.0 0.0
0.0 0.0 0.0
1.5 -0.00176671192413 0.0
1.10638643707 -5.87916733471e-07 0.0
0.0 0.0 0.0
0.0 0.0 0.0
0.0 0.0 0.0
0.0 0.0 0.0
0.0 0.0 0.0
0.0 0.0 0.0
0.0 0.0 0.0
0.0 0.0 0.0
0.0 0.0 0.0
0.0 0.0 0.0
0.0 0.0 0.0
0.0 0.0 0.0
0.0 0.0 0.0
0.0 0.0 0.0
0.0 0.0 0.0
0.0 0.0 0.0
0.0 0.0 0.0
0.0 0.0 0.0
0.0 0.0 0.0
0.0 0.0 0.0
0.0 0.0 0.0
0.0 0.0 0.0
0.0 0.0 0.0
0.0 0.0 0.0
0.0 0.0 0.0
0.0 0.0 0.0
0.0 0.0 0.0
0.0 0.0 0.0
0.0 0.0 0.0
0.0 0.0 0.0
0.0 0.0 0.0
0.0 0.0 0.0
0.0 0.0 0.0
0.0 0.0 0.0
0.0 0.0 0.0
0.0 0.0 0.0
0.0 0.0 0.0
0.0 0.0 0.0
0.0 0.0 0.0
0.0 0.0 0.0
0.0 0.0 0.0
0.0 0.0 0.0
0.0 0.0 0.0
0.0 0.0 0.0
0.0 0.0 0.0
0.0 0.0 0.0
0.0 0.0 0.0
0.0 0.0 0.0
0.0 0.0 0.0
0.0 0.0 0.0
0.0 0.0 0.0
0.0 0.0 0.0
0.0 0.0 0.0
0.0 0.0 0.0
0.0 0.0 0.0
0.0 0.0 0.0
0.0 0.0 0.0
0.0 0.0 0.0
0.0 0.0 0.0
0.0 0.0 0.0
0.0 0.0 0.0
0.0 0.0 0.0
0.0 0.0 0.0
0.0 0.0 0.0
0.0 0.0 0.0
0.0 0.0 0.0
0.0 0.0 0.0
0.0 0.0 0.0
0.0 0.0 0.0
0.0 0.0 0.0
0.0 0.0 0.0
0.0 0.0 0.0
0.0 0.0 0.0
0.0 0.0 0.0
0.0 0.0 0.0
0.0 0.0 0.0
0.0 0.0 0.0
0.0 0.0 0.0
0.0 0.0 0.0
0.0 0.0 0.0
0.0 0.0 0.0
0.0 0.0 0.0
0.0 0.0 0.0
0.0 0.0 0.0
0.0 0.0 0.0
0.0 0.0 0.0
0.0 0.0 0.0
0.0 0.0 0.0
0.0 0.0 0.0
0.0 0.0 0.0
0.0 0.0 0.0
0.0 0.0 0.0
0.0 0.0 0.0
0.0 0.0 0.0
0.0 0.0 0.0
0.0 0.0 0.0
0.0 0.0 0.0
0.0 0.0 0.0
0.0 0.0 0.0
0.0 0.0 0.0
0.0 0.0 0.0
0.0 0.0 0.0
0.0 0.0 0.0
0.0 0.0 0.0
0.0 0.0 0.0
0.0 0.0 0.0
0.0 0.0 0.0
0.0 0.0 0.0
0.0 0.0 0.0
0.0 0.0 0.0
0.0 0.0 0.0
0.0 0.0 0.0
0.0 0.0 0.0
0.0 0.0 0.0
0.0 0.0 0.0
0.0 0.0 0.0
0.0 0.0 0.0
0.0 0.0 0.0
0.0 0.0 0.0
0.0 0.0 0.0
0.0 0.0 0.0
0.0 0.0 0.0
0.0 0.0 0.0
0.0 0.0 0.0
0.0 0.0 0.0
0.0 0.0 0.0
0.0 0.0 0.0
0.0 0.0 0.0
0.0 0.0 0.0
0.0 0.0 0.0
0.0 0.0 0.0
0.0 0.0 0.0
0.0 0.0 0.0
0.0 0.0 0.0
0.0 0.0 0.0
0.0 0.0 0.0
0.0 0.0 0.0
0.0 0.0 0.0
0.0 0.0 0.0
0.0 0.0 0.0
0.0 0.0 0.0
0.0 0.0 0.0
0.0 0.0 0.0
0.0 0.0 0.0
0.0 0.0 0.0
0.0 0.0 0.0
0.0 0.0 0.0
0.0 0.0 0.0
0.0 0.0 0.0
0.0 0.0 0.0
0.0 0.0 0.0
0.0 0.0 0.0
0.0 0.0 0.0
0.0 0.0 0.0
0.0 0.0 0.0
0.0 0.0 0.0
0.0 0.0 0.0
0.0 0.0 0.0
0.0 0.0 0.0
0.0 0.0 0.0
0.0 0.0 0.0
0.0 0.0 0.0
0.0 0.0 0.0
0.0 0.0 0.0
0.0 0.0 0.0
0.0 0.0 0.0
0.0 0.0 0.0
0.0 0.0 0.0
0.0 0.0 0.0
0.0 0.0 0.0
0.0 0.0 0.0
0.0 0.0 0.0
0.0 0.0 0.0
0.0 0.0 0.0
0.0 0.0 0.0
0.0 0.0 0.0
0.0 0.0 0.0
0.0 0.0 0.0
0.0 0.0 0.0
0.0 0.0 0.0
0.0 0.0 0.0
0.0 0.0 0.0
0.0 0.0 0.0
0.0 0.0 0.0
0.0 0.0 0.0
0.0 0.0 0.0
0.0 0.0 0.0
0.0 0.0 0.0
0.0 0.0 0.0
0.0 0.0 0.0
0.0 0.0 0.0
0.0 0.0 0.0
0.0 0.0 0.0
0.0 0.0 0.0
0.0 0.0 0.0
0.0 0.0 0.0
0.0 0.0 0.0
0.0 0.0 0.0
0.0 0.0 0.0
0.0 0.0 0.0
0.0 0.0 0.0
0.0 0.0 0.0
0.0 0.0 0.0
0.0 0.0 0.0
0.0 0.0 0.0
0.0 0.0 0.0
0.0 0.0 0.0
0.0 0.0 0.0
0.0 0.0 0.0
0.0 0.0 0.0
0.0 0.0 0.0
0.0 0.0 0.0
0.0 0.0 0.0
0.0 0.0 0.0
0.0 0.0 0.0
0.0 0.0 0.0
0.0 0.0 0.0
0.0 0.0 0.0
0.0 0.0 0.0
0.0 0.0 0.0
0.0 0.0 0.0
0.0 0.0 0.0
0.0 0.0 0.0
0.0 0.0 0.0
0.0 0.0 0.0
0.0 0.0 0.0
0.0 0.0 0.0
0.0 0.0 0.0
0.0 0.0 0.0
0.0 0.0 0.0
0.0 0.0 0.0
0.0 0.0 0.0
0.0 0.0 0.0
0.0 0.0 0.0
0.0 0.0 0.0
0.0 0.0 0.0
0.0 0.0 0.0
0.0 0.0 0.0
0.0 0.0 0.0
0.0 0.0 0.0
0.0 0.0 0.0
0.0 0.0 0.0
0.0 0.0 0.0
0.0 0.0 0.0
0.0 0.0 0.0
0.0 0.0 0.0
0.0 0.0 0.0
0.0 0.0 0.0
0.0 0.0 0.0
0.0 0.0 0.0
0.0 0.0 0.0
0.0 0.0 0.0
0.0 0.0 0.0
0.0 0.0 0.0
0.0 0.0 0.0
0.0 0.0 0.0
0.0 0.0 0.0
1.611693804 -0.000349561992824 0.0
1.58666527713 -0.00181309183994 0.0
1.57177628643 -0.00135595252256 0.0
1.52533009956 0.00791142260266 0.0
1.48827934691 -0.0184173105958 0.0
1.42862399673 0.0100373876484 0.0
1.35645126017 -0.00514614616525 0.0
1.31233887296 0.000181989747232 0.0
1.25536296934 0.0056344489557 0.0
1.21462087082 -0.00516329190309 0.0
1.19165254657 1.5725823762e-05 0.0
1.17376010449 2.35738243964e-05 0.0
1.16933946185 0.000135843102801 0.0
1.16663911654 -0.000485960601269 0.0
1.17052962933 0.00107880116403 0.0
1.17666950538 -0.000399719123483 0.0
1.18653413157 0.00029015633595 0.0
1.20179176414 -0.00128417905873 0.0
1.22038062914 0.000588290808783 0.0
1.23624335931 0.0008671636449 0.0
1.25765223941 -0.00229524913296 0.0
1.2840758441 0.00193275323348 0.0
1.30344668565 0.00052866359104 0.0
1.33671879274 -0.00326655865165 0.0
1.37661094261 0.00037861147796 0.0
1.40826774594 0.0027381556365 0.0
1.45668652393 0.00680713312337 0.0
1.51129441843 -0.00766383940044 0.0
1.58930775308 0.00580928599155 0.0
1.66618571233 -0.00712059423039 0.0
1.77286119916 -0.00745014232603 0.0
1.86682164092 0.00570897981614 0.0
1.95251344252 0.00675740982027 0.0
2.03641501406 -0.00771763904547 0.0
2.13865674408 -0.00597940804122 0.0
2.23419609388 0.00324108908062 0.0
2.34155371707 0.00330774484239 0.0
2.44992361485 -0.00231415872214 0.0
2.57459645206 0.00204404521461 0.0
2.66960063965 0.00224012741805 0.0
2.74568337146 -0.00509320396491 0.0
2.79872076468 0.00341715590025 0.0
2.8530631349 -0.00247051648766 0.0
2.93714558074 0.00625067687757 0.0
3.00722099135 0.000177179960489 0.0
3.10135880665 -0.00674853362239 0.0
3.16266538397 0.000820252308494 0.0
3.18073535798 0.0011405179894 0.0
3.19530709913 0.000848161237172 0.0
3.21001004171 -0.000230201292251 0.0
3.24549299972 -0.00237100710325 0.0
3.28330605927 -0.00045472623996 0.0
3.298670027 0.000280620945684 0.0
3.28257276832 0.00273785604163 0.0
3.25244377762 -0.000581987869524 0.0
3.22785829228 -0.00205231304123 0.0
3.17926784617 0.00269926078817 0.0
3.12808190555 -0.00393982892773 0.0
3.07237361662 0.00533254631062 0.0
3.00243722149 -0.00180725303708 0.0
2.92091334032 -0.00237038093092 0.0
2.81333928636 0.000903409071302 0.0
2.70938401248 -0.00181174443665 0.0
2.59078240879 -0.00352128157493 0.0
2.47209346118 0.0079719272994 0.0
2.33710906343 0.00991542096758 0.0
2.22599477144 -0.00892242489155 0.0
2.11814625562 -0.00700016891313 0.0
2.00452672665 0.00933483412961 0.0
1.88048781933 0.00389191404399 0.0
1.75514714879 0.0163006282956 0.0
1.67788181317 -0.0321690734094 0.0
1.6042155873 0.0179348454359 0.0
1.50529840303 -0.00320047880573 0.0
1.46679436785 -0.00536333792102 0.0
1.40331083514 0.00293633631381 0.0
1.35245892289 6.59189914374e-05 0.0
1.32465572325 -0.00300306791862 0.0
1.28768837375 0.00346424597908 0.0
1.25767113717 -0.000755143083065 0.0
1.2345159098 0.00054722074503 0.0
1.21548087231 -0.00163617706598 0.0
1.19438076885 -0.00150752141414 0.0
1.1815078193 0.000365336790635 0.0
1.16610870043 -0.00059596391025 0.0
1.15064301175 0.000185231512655 0.0
1.14168984451 -0.000618522111428 0.0
1.13234890396 0.000229588507505 0.0
1.12633135449 -0.000693714695558 0.0
1.11956300565 0.000493531203302 0.0
1.11511716859 -0.000124892736786 0.0
1.11228909302 -1.72253336747e-05 0.0
1.11019798978 6.87279773654e-05 0.0
1.10851674053 -5.51019504073e-05 0.0
1.10758084156 -4.96597323826e-05 0.0
1.10705818286 3.4482543105e-05 0.0
1.10666759358 -4.77756241514e-05 0.0
1.10642321084 1.02110702465e-05 0.0
1.10632354815 -3.32105292828e-06 0.0
1.485 -0.00109501544373 0.0
1.44 -0.00530429707328 0.0
1.365 -0.0152233059633 0.0
1.26 -0.011122395477 0.0
1.125 0.00257022044654 0.0
0.960000000002 -0.00619085515399 0.0
0.765000000002 -0.003379628946 0.0
0.540000000001 -0.0182423115529 0.0
0.285000000001 -0.00965587331208 0.0
1.10627039558 1.30270482736e-05 0.0
1.10628891375 1.59114206521e-05 0.0
1.10636016469 -5.79085758118e-06 0.0
1.10637816491 8.35684428937e-06 0.0
1.10640604157 -4.98604252461e-06 0.0
1.10648655826 5.35219126102e-05 0.0
1.10631051556 0.000117333037094 0.0
1.1048998255 0.000286817208338 0.0
1.09860579348 0.00115762818946 0.0
1.08161607308 0.00402099181399 0.0
1.03650100835 0.00770042294055 0.0
0.958927114021 0.00969418153805 0.0
0.813259805933 0.00129429291948 0.0
0.565825826283 0.015746211542 0.0
0.230607680337 0.0177908464221 0.0
1.15703095901 0.0872371207268 0.0
1.10397006088 0.000606058140704 0.0
1.09761184253 0.0275240861173 0.0
1.42027091442 -0.287710526895 0.0
1.503225391 0.416871571575 0.0
1.11331301098 -0.0785078049482 0.0
1.23706390354 -0.108673319322 0.0
1.20912521084 0.177257691004 0.0
1.0908068954 0.0409116260094 0.0
2.02710645411 -0.262176359962 0.0
2.06429790673 0.35249922596 0.0
1.22288476227 0.0989718960304 0.0
1.09001802443 0.00293815766504 0.0
1.21283411899 -0.111809266386 0.0
2.57592509182 0.147355651284 0.0
2.57968223453 -0.0778086108987 0.0
1.05552736039 0.20104863928 0.0
2.72169731859 0.0333963977224 0.0
1.05089564611 0.0812844838359 0.0
1.01669215782 0.160090953999 0.0
1.06826606497 -0.00416139986329 0.0
1.3082541209 -0.1816013331 0.0
1.29708475576 0.275658667017 0.0
1.06226139384 -2.39739417493e-05 0.0
0.90738877347 -0.119241578169 0.0
1.6461891353 -0.405453196155 0.0
1.81368950955 0.422693482578 0.0
1.03824881408 0.00842604868764 0.0
1.03944137767 -0.0197210888966 0.0
0.547483610315 0.12114328174 0.0
0.591974279915 0.0135751412457 0.0
1.16515178241 -0.0673444586207 0.0
1.07993724199 0.0795030001134 0.0
2.08308160836 0.310054601822 0.0
2.04029053643 -0.238339277372 0.0
1.10796951058 0.00744974896906 0.0
0.886442995817 0.119270086361 0.0
1.0415618452 -0.198679610586 0.0
1.1113693333 -0.417484641493 0.0
0.863435263294 0.354651301916 0.0
0.827740873671 0.317545319345 0.0
2.86574111195 0.0736250016707 0.0
2.74653230887 -0.0832035597526 0.0
1.25777460395 -0.0637410338656 0.0
1.28092717623 0.0846885181624 0.0
1.13288204927 0.0340779688136 0.0
0.955121514457 -0.152211611928 0.0
0.959117367718 0.236442424828 0.0
1.14144139067 -0.00847609789675 0.0
0.983860277903 0.0765326617454 0.0
1.1856627524 0.0940095475251 0.0
0.959398910461 -0.00919827339174 0.0
0.952965967205 0.000210013028367 0.0
1.10615646836 0.000313289985127 0.0
1.18554847488 -0.0447678597389 0.0
0.911313807864 0.018416439484 0.0
0.862999129649 0.103088090443 0.0
1.14261155992 -0.192250529382 0.0
1.30196895693 -0.102113564786 0.0
1.50443894358 0.180062702046 0.0
1.40254715023 -0.116589678108 0.0
1.20517129982 0.0562004125343 0.0
2.20526500622 -0.44444331858 0.0
2.29730898493 0.300765432137 0.0
0.916657975307 0.00381838220603 0.0
1.33346184002 0.162765652247 0.0
2.68526873078 0.213365639997 0.0
2.6630878745 -0.308077830865 0.0
2.77196976629 -0.110037583305 0.0
2.58428078993 -0.309502309381 0.0
2.67237401761 0.0834464913199 0.0
1.29368662153 0.121865576898 0.0
1.18345378677 0.109685134415 0.0
3.08691439069 -0.116233721896 0.0
3.15135635209 0.0679977800595 0.0
1.10567284548 -0.000457069837865 0.0
1.06114504412 -0.0370189085016 0.0
0.525487883917 0.164048614473 0.0
0.919382783871 -0.203707416584 0.0
0.322669206408 0.0115010224206 0.0
0.884437913421 -0.00769060382394 0.0
0.909687382634 -0.0501635595502 0.0
1.28112433479 -0.214912842843 0.0
1.11819503352 0.015405399383 0.0
1.00501391747 0.0847847420378 0.0
0.629909204058 0.0822762458322 0.0
3.04162108481 0.00148929503489 0.0
0.483836229124 0.0217893995955 0.0
0.937346124476 -0.0785484105893 0.0
0.950915825771 0.00849925895624 0.0
0.797545418652 0.0558070748045 0.0
0.765886400877 -0.0203852556134 0.0
0.54749175157 0.0725547611604 0.0
1.10671620105 0.00226817025331 0.0
1.06491052073 0.261365790574 0.0
0.279742543734 -0.00728925566735 0.0
0.14529997315 0.0312688575912 0.0
1.18651576132 0.1235696695 0.0
1.23421097516 0.113989643869 0.0
1.24757844481 -0.0953153017225 0.0
0.83464631034 0.13196031624 0.0
1.13854482874 0.369929993178 0.0
1.10349003044 0.00384217650954 0.0
0.991073214528 0.173672088262 0.0
1.77749705553 0.232145910093 0.0
1.55984987611 -0.173426030378 0.0
1.09764328129 -0.000921446443226 0.0
0.782158583119 0.00208527307799 0.0
0.771030268277 -0.00825322815667 0.0
1.15619341825 0.0358502534634 0.0
1.12040733984 0.0658542421422 0.0
0.791285798991 -0.00296115831669 0.0
1.40996866364 0.325190207436 0.0
0.587037090267 0.118487390681 0.0
0.336495656389 0.0986616638386 0.0
1.76516954712 0.389526854305 0.0
2.07179920643 0.254158575693 0.0
1.90180410994 -0.480866153352 0.0
1.85629084174 -0.217839821791 0.0
0.625166230983 -0.197066172074 0.0
1.28768279505 0.148958641908 0.0
1.09179430735 0.0121634408224 0.0
0.196794300875 0.132214025154 0.0
1.14834290637 -0.253576100123 0.0
1.07077114349 0.0402207206379 0.0
1.10501705731 -0.022511078486 0.0
1.22063323293 -0.0579699002476 0.0
1.19876946142 -0.137484137931 0.0
1.09993173772 0.108940543636 0.0
0.99770822603 0.251464589429 0.0
1.16520831427 0.0501260242777 0.0
1.37135531642 -0.193761159634 0.0
1.23905976635 0.0680386180742 0.0
1.15036825802 -0.107463130808 0.0
0.0473952961064 -0.0368876278666 0.0
0.506557107452 -0.126479492923 0.0
0.712657748116 -0.00545592871122 0.0
0.70802536124 0.0132175248409 0.0
1.94031383716 -0.166261256737 0.0
1.5760865248 0.251182479198 0.0
0.358559238281 -0.0365296073354 0.0
1.09886896275 -0.00159859122241 0.0
1.51595790549 -0.615993509851 0.0
0.833687682494 -0.014512142729 0.0
1.07227507374 0.145318813195 0.0
1.09924651005 0.00130300507279 0.0
0.684197571368 0.105297062583 0.0
0.749169373961 -0.0105910820202 0.0
0.498303358297 -0.237001916058 0.0
0.713455693192 0.005486591616 0.0
0.124982253093 0.092503160564 0.0
0.0921896771253 0.00467130489288 0.0
0.160585401795 0.0330685215268 0.0
1.19027920581 0.0791875965877 0.0
0.550225805033 -0.0464015711746 0.0
0.911825429974 -0.245766123939 0.0
1.14222692982 -0.0417005770834 0.0
1.16583965354 -0.0155974710639 0.0
1.88601958352 0.0677401816847 0.0
2.32716631344 -0.0214908578526 0.0
1.10425461372 0.0132081752813 0.0
1.2517487794 -0.149960096255 0.0
1.22569980907 0.236738206143 0.0
1.03795032797 0.142675443789 0.0
1.11835106082 -0.0561420971488 0.0
1.26914545533 -0.092465589494 0.0
1.27819976387 0.136218439105 0.0
1.05212777934 0.00300506030858 0.0
1.09983563028 0.00769156192752 0.0
0.695274727651 0.0136523919592 0.0
0.585999302325 0.0583982449948 0.0
2.38453608342 0.197027366517 0.0
2.08531034267 -0.143702733243 0.0
1.51822369054 0.451748918051 0.0
1.06853034897 0.00315852029073 0.0
1.11145420809 0.0543334511455 0.0
2.64966127009 0.179426442501 0.0
2.28769734402 -0.174203873963 0.0
1.06512357256 -0.0496993103877 0.0
0.057307259301 0.0248733527728 0.0
0.0459407063974 0.0462499756784 0.0
0.591165000694 0.0158022007137 0.0
1.44437365177 0.0973964018524 0.0
1.3532467533 0.0684070744961 0.0
1.14830837108 0.12420254253 0.0
0.577550259111 -0.142031165846 0.0
0.479462572626 0.14507496801 0.0
1.36760960945 -0.0576463377859 0.0
1.01547941976 -0.117833419176 0.0
1.11340558661 0.0374301435056 0.0
1.24171408595 -0.111393180089 0.0
1.06687580663 0.0141839750676 0.0
0.744977372101 -0.0412335199847 0.0
0.168380933334 0.0386621482851 0.0
1.29582324481 -0.0424229195193 0.0
0.759657561497 -0.00181377600932 0.0
2.87283616229 -0.0827052372187 0.0
1.33900518386 -0.13081980951 0.0
1.10629996759 8.27479187219e-06 0.0
1.06292517814 -0.00313133575337 0.0
1.40946569778 0.221733342309 0.0
1.10586790902 0.00113521636899 0.0
2.03371878028 -0.287919856739 0.0
1.71627787668 0.281009832257 0.0
0.75479769766 0.0379909333302 0.0
1.32639970165 -0.249672025864 0.0
1.21250564137 0.0993361251762 0.0
0.631253764154 0.171910080331 0.0
0.378804378026 -0.0590870824694 0.0
-0.0280404524744 0.0207221360164 0.0
0.486627119382 0.0225843734463 0.0
0.549255360143 -0.00756242532246 0.0
0.639915197779 -0.00410124972944 0.0
1.50728377109 0.031547404949 0.0
0.730519643583 0.0117935410146 0.0
0.34042029886 0.0404343809742 0.0
1.04720618947 0.162052031872 0.0
1.12041169799 0.00720599917484 0.0
0.38941080167 0.0138821614607 0.0
1.18632227077 -0.0783312308878 0.0
0.700167299114 0.178818509158 0.0
0.76723171445 -0.0509792567521 0.0
1.05329188081 0.136453584183 0.0
1.47485587996 -0.376310170411 0.0
0.687161717921 -0.0180820021383 0.0
1.11470067255 0.0072173099199 0.0
1.10020234892 0.000130823131961 0.0
1.10913432581 0.00341592834147 0.0
1.10491061974 -0.000202111464214 0.0
1.4496126622 -0.178545269579 0.0
2.09630310373 0.232018957596 0.0
2.72097971351 -0.178435213904 0.0
1.07932425254 0.0222040831857 0.0
2.43057855508 0.141701786855 0.0
2.33685564352 -0.561802732316 0.0
1.156849015 0.0232102343675 0.0
1.60507442769 0.258559457802 0.0
1.47772372632 -0.0994419168666 0.0
1.10663925829 0.000790023189132 0.0
2.61647024633 -0.306036365993 0.0
2.40267244294 0.084742326933 0.0
0.555759671413 -0.0259565804188 0.0
1.10139611049 -0.00143277499217 0.0
1.2125696384 -0.0270510855076 0.0
1.10625577576 0.000125918409984 0.0
1.2447395949 -0.0330682331427 0.0
1.095849031 0.0590997838952 0.0
1.13173322169 0.0141409050414 0.0
1.99602327446 0.11444626213 0.0
0.884394699424 -0.28276488015 0.0
1.10376064053 -0.150520887081 0.0
1.0527489656 0.0492531302218 0.0
1.26597172203 0.0450204113821 0.0
1.18465805487 0.435795179326 0.0
1.28873865628 -0.336130490467 0.0
1.0657669688 0.129940719115 0.0
1.03398935174 -0.000955318526995 0.0
0.62585907232 0.000345140858107 0.0
1.18701908204 0.0341560517743 0.0
2.86499010233 -0.00196079457447 0.0
1.71034285551 -0.229350724943 0.0
1.92310301901 0.266596579701 0.0
1.23250458237 0.034654493612 0.0
1.00766194177 -0.0787874647003 0.0
1.0732317062 0.0015232044828 0.0
0.432954248496 0.0747521570005 0.0
0.561166084141 0.00385322895612 0.0
0.962157665425 0.0550636995907 0.0
1.28863955165 0.389951530684 0.0
0.568453457706 -0.00271889946783 0.0
1.160177156 0.00573730474338 0.0
0.635449508283 0.0165441577898 0.0
1.14105785192 -0.208479964191 0.0
0.924520721874 -0.0223532252084 0.0
2.25005757996 0.187637374517 0.0
1.02146345346 -0.238229052464 0.0
1.98708069598 -0.143249085953 0.0
1.20175566191 0.364102977303 0.0
1.07583796069 -0.000835740537768 0.0
1.1363021927 0.0728377800894 0.0
3.14167250172 -0.0372707540605 0.0
3.13959951362 -0.00629476752077 0.0
1.19375747162 0.0493040736466 0.0
0.95769829969 0.0907077593871 0.0
1.62093147466 0.13139488103 0.0
0.920507666284 0.173684764741 0.0
1.17663928708 0.128768007878 0.0
0.483249166256 0.0274673334954 0.0
1.23229692891 -0.0921428558482 0.0
2.87233801624 -0.089161611716 0.0
3.1687875139 0.0456893065196 0.0
2.7934776003 0.167497259447 0.0
2.47079404171 -0.207412152907 0.0
1.43977267636 -0.58053479221 0.0
0.954671781073 0.153022251629 0.0
1.13049668718 -0.195064123314 0.0
0.702681892101 -0.000867511858148 0.0
1.43999562972 0.0876542873537 0.0
1.10505750807 0.0023328431778 0.0
0.184143826891 0.0393706508143 0.0
-0.0789695566685 0.0545495641265 0.0
1.74877187213 -0.197508068392 0.0
1.06530476409 -0.00088599358066 0.0
0.252700687554 -0.0958122511125 0.0
-0.146396439153 -0.104523136212 0.0
1.27906662387 0.08901312199 0.0
1.56292722596 -0.228154689077 0.0
1.19523969449 0.256075050476 0.0
0.828665095046 -0.558632876219 0.0
1.76747929013 0.368801234954 0.0
1.17128439303 0.134979287038 0.0
1.14802368846 -0.0681550508923 0.0
1.23402386799 -0.0857917534002 0.0
0.53993142942 -0.0276537597038 0.0
1.03942445447 0.0222379354126 0.0
1.27605134785 0.184957452091 0.0
1.27118785421 -0.116617362084 0.0
0.388530271486 0.134115316787 0.0
0.967562243156 0.137540484945 0.0
1.10617532396 -0.000224426220196 0.0
1.14618541058 0.183063138671 0.0
1.32427935069 0.224810177175 0.0
1.30268147588 -0.141206416837 0.0
0.0134170907385 0.00518267301004 0.0
-0.0427431678363 -0.0364125929859 0.0
1.16515721862 0.0196843535677 0.0
0.622829821534 0.135055032664 0.0
1.24134548851 0.0935908614255 0.0
0.980329226271 -0.00246096112188 0.0
0.0292829611324 0.0147486472319 0.0
-0.0644064642708 0.0568152168034 0.0
1.67771884591 -0.386280889567 0.0
1.16759857981 0.10819917735 0.0
2.79979539826 -0.0551216415885 0.0
3.09346548185 0.0620350875097 0.0
1.10613057913 0.0045725004916 0.0
-0.0813652504965 -0.0361002160127 0.0
0.177100100902 -0.0332560472917 0.0
1.08147973299 0.202661381321 0.0
1.12523740611 -0.101865242065 0.0
0.460197283137 0.0455737589074 0.0
0.947943196449 -0.0046714136232 0.0
1.21739222219 0.0837806922993 0.0
1.96992736845 -0.297340200255 0.0
1.14498022302 0.0644666963772 0.0
2.06340993739 0.331704667907 0.0
1.21758213753 -0.145734150434 0.0
0.867486393516 0.0535909644301 0.0
0.984985432511 0.00329168294885 0.0
2.04905690326 -0.209294925044 0.0
2.10510069653 0.29524053197 0.0
1.11718315734 0.148724770648 0.0