# vtk DataFile Version 2.0
2D Simulation Python
ASCII
DATASET UNSTRUCTURED_GRID
FIELD FieldData 1
NODES 1 2 int
2757 5098

POINTS 2757 double
0.0 1.0 0.0
1.85 1.0 0.0
2.15 1.0 0.0
2.5312 0.9845000000000002 0.0
2.804 0.8597000000000001 0.0
3.1897 0.7164000000000001 0.0
3.4784 0.6349999999999998 0.0
3.8514 0.5613000000000001 0.0
4.1492 0.5257999999999998 0.0
4.5167 0.5049000000000001 0.0
4.8167 0.5003000000000002 0.0
5.1833 0.5003000000000002 0.0
5.4833 0.5049000000000001 0.0
5.8508 0.5257999999999998 0.0
6.1486 0.5613000000000001 0.0
6.5216 0.6349999999999998 0.0
6.8103 0.7164000000000001 0.0
7.196 0.8597000000000001 0.0
7.4688 0.9845000000000002 0.0
7.85 1.0 0.0
8.15 1.0 0.0
10.0 1.0 0.0
2.0 0.8500000000000001 0.0
2.604294 0.7837869999999998 0.0
3.292593 0.5288279999999999 0.0
3.982247 0.3922810000000001 0.0
4.6644 0.3515969999999999 0.0
5.3356 0.3515969999999999 0.0
6.017753 0.3922810000000001 0.0
6.707407 0.5288279999999999 0.0
7.395706 0.7837869999999998 0.0
8.0 0.8500000000000001 0.0
0.0 0.0 0.0
10.0 0.0 0.0
0.09589869952291516 1.0 0.0
0.1888147635033504 1.0 0.0
0.2788409054415558 1.0 0.0
0.3660670333996566 1.0 0.0
0.4505802302878947 1.0 0.0
0.5324648790931192 1.0 0.0
0.6118027156217198 1.0 0.0
0.6886729728356462 1.0 0.0
0.7631523848471844 1.0 0.0
0.8353153174851218 1.0 0.0
0.9052338217649879 1.0 0.0
0.9729776980408794 1.0 0.0
1.038614580849525 1.0 0.0
1.102210010843471 1.0 0.0
1.163827479442682 1.0 0.0
1.223528508355988 1.0 0.0
1.281372692526642 1.0 0.0
1.337417785230084 1.0 0.0
1.391719743967992 1.0 0.0
1.444332799787133 1.0 0.0
1.495309459666087 1.0 0.0
1.544700643890327 1.0 0.0
1.592555642113107 1.0 0.0
1.638922222094626 1.0 0.0
1.683846722920012 1.0 0.0
1.727373960837219 1.0 0.0
1.769547395111623 1.0 0.0
1.810409141995569 1.0 0.0
2.188119999999948 0.9984500000000022 0.0
2.226239999999895 0.9969000000000042 0.0
2.264359999999671 0.9953500000000134 0.0
2.302479999999619 0.9938000000000156 0.0
2.340599999999567 0.9922500000000177 0.0
2.378719999999689 0.9907000000000128 0.0
2.416839999999636 0.989150000000015 0.0
2.454959999999585 0.987600000000017 0.0
2.493079999999706 0.9860500000000121 0.0
2.839063636363584 0.8466727272727468 0.0
2.874127272727092 0.8336454545455219 0.0
2.909190909090677 0.8206181818182683 0.0
2.944254545454222 0.8075909090910295 0.0
2.97931818181763 0.7945636363638415 0.0
3.014381818181257 0.7815363636365724 0.0
3.049445454545112 0.7685090909092184 0.0
3.084509090908891 0.7554818181818926 0.0
3.119572727272518 0.7424545454546234 0.0
3.154636363636221 0.729427272727326 0.0
3.515699999999767 0.6276300000000459 0.0
3.552999999999703 0.6202600000000585 0.0
3.59029999999978 0.6128900000000433 0.0
3.627599999999699 0.6055200000000595 0.0
3.664899999999474 0.5981500000001038 0.0
3.702199999999584 0.5907800000000822 0.0
3.739499999999687 0.5834100000000619 0.0
3.776799999999796 0.5760400000000403 0.0
3.814099999999899 0.56867000000002 0.0
4.185950000000035 0.5237099999999979 0.0
4.22269999999962 0.5216200000000215 0.0
4.259449999999689 0.5195300000000176 0.0
4.296199999999274 0.5174400000000412 0.0
4.332949999999307 0.5153500000000395 0.0
4.369699999999686 0.5132600000000178 0.0
4.406449999999271 0.5111700000000414 0.0
4.443200000000032 0.5090799999999982 0.0
4.47994999999962 0.5069900000000217 0.0
4.85335999999993 0.5003000000000002 0.0
4.890019999999688 0.5003000000000002 0.0
4.926679999999445 0.5003000000000002 0.0
4.963339999999202 0.5003000000000002 0.0
4.99999999999948 0.5003000000000002 0.0
5.036659999999757 0.5003000000000002 0.0
5.073319999999861 0.5003000000000002 0.0
5.109979999999966 0.5003000000000002 0.0
5.14664000000007 0.5003000000000002 0.0
5.520050000000034 0.506990000000002 0.0
5.556799999999619 0.5090799999999784 0.0
5.593549999999689 0.5111699999999824 0.0
5.630299999999274 0.5132599999999587 0.0
5.667049999999306 0.5153499999999605 0.0
5.703799999999686 0.5174399999999821 0.0
5.740549999999271 0.5195299999999585 0.0
5.777300000000031 0.5216200000000017 0.0
5.814049999999619 0.5237099999999782 0.0
6.185899999999967 0.5686699999999937 0.0
6.223200000000103 0.5760400000000205 0.0
6.26049999999988 0.5834099999999763 0.0
6.297799999999683 0.5907799999999372 0.0
6.335099999999809 0.5981499999999621 0.0
6.372399999999617 0.6055199999999242 0.0
6.409700000000087 0.6128900000000171 0.0
6.446999999999897 0.6202599999999795 0.0
6.484300000000033 0.6276300000000062 0.0
6.845363636363626 0.7294272727272689 0.0
6.880427272727252 0.7424545454545377 0.0
6.915490909090877 0.7554818181818067 0.0
6.950554545454437 0.7685090909090506 0.0
6.985618181818142 0.7815363636363493 0.0
7.020681818181658 0.7945636363635772 0.0
7.055745454545396 0.8075909090908875 0.0
7.090809090908994 0.8206181818181463 0.0
7.125872727272663 0.8336454545454308 0.0
7.160936363636331 0.8466727272727155 0.0
7.50692 0.9860500000000001 0.0
7.545039999999653 0.987599999999986 0.0
7.583159999999308 0.989149999999972 0.0
7.621279999999653 0.990699999999986 0.0
7.659399999999653 0.992249999999986 0.0
7.697519999999654 0.993799999999986 0.0
7.735639999999999 0.9953500000000001 0.0
7.773759999999654 0.9968999999999859 0.0
7.811879999999999 0.99845 0.0
8.189361702128089 1.0 0.0
8.228723404256021 1.0 0.0
8.268085106383511 1.0 0.0
8.307446808511347 1.0 0.0
8.346808510638837 1.0 0.0
8.386170212766556 1.0 0.0
8.425531914894163 1.0 0.0
8.464893617021728 1.0 0.0
8.504255319149491 1.0 0.0
8.543617021276981 1.0 0.0
8.582978723404818 1.0 0.0
8.622340425532308 1.0 0.0
8.661702127660144 1.0 0.0
8.701063829787634 1.0 0.0
8.740425531915472 1.0 0.0
8.779787234042962 1.0 0.0
8.819148936170695 1.0 0.0
8.858510638298288 1.0 0.0
8.897872340425867 1.0 0.0
8.937234042553614 1.0 0.0
8.976595744681104 1.0 0.0
9.01595744680894 1.0 0.0
9.05531914893643 1.0 0.0
9.094680851064266 1.0 0.0
9.134042553191756 1.0 0.0
9.173404255319593 1.0 0.0
9.212765957447777 1.0 0.0
9.252127659575525 1.0 0.0
9.291489361703103 1.0 0.0
9.330851063830696 1.0 0.0
9.37021276595843 1.0 0.0
9.40957446808592 1.0 0.0
9.448936170213758 1.0 0.0
9.488297872341246 1.0 0.0
9.527659574469084 1.0 0.0
9.567021276596574 1.0 0.0
9.60638297872441 1.0 0.0
9.6457446808519 1.0 0.0
9.685106382979662 1.0 0.0
9.724468085107226 1.0 0.0
9.763829787234833 1.0 0.0
9.803191489362552 1.0 0.0
9.842553191490042 1.0 0.0
9.881914893617878 1.0 0.0
9.921276595745368 1.0 0.0
9.960638297872762 1.0 0.0
1.85511112605661 0.9611771432347338 0.0
1.87009618943224 0.9250000000001632 0.0
1.89393398282189 0.8939339828221454 0.0
1.924999999999842 0.8700961894324258 0.0
1.96117714323457 0.8551111260566537 0.0
2.51911222351653 0.9468943483281596 0.0
2.517261556501524 0.9074371004566797 0.0
2.525776366502026 0.8688651237292935 0.0
2.544066041990905 0.8338538805560812 0.0
2.570861958867948 0.8048318507040559 0.0
3.183399471121889 0.6773269167743563 0.0
3.187540640753236 0.6379663627768488 0.0
3.201835045303677 0.6010600964327384 0.0
3.225286972057683 0.569178916585472 0.0
3.256262818048977 0.5445435870349058 0.0
3.851311808445927 0.5217631357369752 0.0
3.861560068046178 0.4835774762734121 0.0
3.881432344049533 0.449397598275363 0.0
3.909547162863183 0.4215996059626037 0.0
3.94395004882614 0.4021159499676259 0.0
4.520996695771619 0.4658028333951991 0.0
4.53530678067777 0.4291658097571295 0.0
4.558646801051933 0.3975067908214496 0.0
4.589412725279813 0.3730015273561684 0.0
4.625490180094372 0.3573341317450809 0.0
5.188792203110742 0.4613608817416055 0.0
5.204215644069836 0.4251871800409458 0.0
5.228510353354086 0.3942649174043062 0.0
5.260006687237601 0.3707192133874752 0.0
5.296540073359643 0.3561682366420743 0.0
5.860011021539801 0.4873401270919612 0.0
5.878953813569356 0.4526244912484382 0.0
5.906311508814615 0.4240664581795365 0.0
5.94018225175748 0.4036513286316637 0.0
5.978211412052326 0.3927983240146977 0.0
6.536647498529492 0.5983695458969855 0.0
6.560754133038625 0.5669515963705687 0.0
6.592240694919373 0.5429346481718567 0.0
6.628913908052386 0.5279916625832858 0.0
6.668219207005813 0.523163531066366 0.0
7.216556713460987 0.8259527451430548 0.0
7.245211027874307 0.7987427112527251 0.0
7.279975409646859 0.7799572530799906 0.0
7.318438515914653 0.7708993761205898 0.0
7.357932451203028 0.7721973569569427 0.0
7.855111126056608 0.9611771432347389 0.0
7.87009618943239 0.9249999999999031 0.0
7.893933982821849 0.893933982822186 0.0
7.924999999999724 0.870096189432493 0.0
7.961177143234544 0.8551111260566602 0.0
2.038822856765458 0.8551111260566613 0.0
2.074999999999886 0.8700961894322686 0.0
2.106066017177859 0.8939339828218953 0.0
2.129903810567719 0.9250000000000924 0.0
2.144888873943354 0.9611771432345996 0.0
2.642072213105018 0.7722253821844589 0.0
2.68155866996913 0.7709276471286509 0.0
2.720014493007171 0.7799838089221203 0.0
2.754772291926727 0.7987657099507169 0.0
2.783421180466018 0.8259705914503371 0.0
3.331781228837649 0.5232065749202437 0.0
3.371075251522289 0.5280333212977997 0.0
3.407737943504146 0.5429720199040406 0.0
3.439215472227839 0.5669820778975886 0.0
3.463315190802363 0.5983910139513634 0.0
4.021785797379926 0.3928173305182819 0.0
4.059810087100174 0.4036689451393993 0.0
4.093676492056691 0.424081460024671 0.0
4.121030683473297 0.4526358355315954 0.0
4.139971049410406 0.4873470251801275 0.0
4.703463602180634 0.3561536952559329 0.0
4.740000641190358 0.3707061269192393 0.0
4.771500124319702 0.3942541852163063 0.0
4.795797262775971 0.4251795396981159 0.0
4.811222245889969 0.4613568583244396 0.0
5.37450551763444 0.3573491929815369 0.0
5.410579205991976 0.3730149529290054 0.0
5.44134191828321 0.3975176580649515 0.0
5.464679501979187 0.429173371825681 0.0
5.478988092924676 0.4658065705894096 0.0
6.056057512867302 0.4020971861494807 0.0
6.090465040120479 0.4215834706823507 0.0
6.118583651902696 0.4493852132201999 0.0
6.138458608873377 0.4835697024226929 0.0
6.14870825106575 0.521760513510746 0.0
6.743759676449819 0.5445060199603367 0.0
6.774744567243897 0.569148542912274 0.0
6.798203341851458 0.6010390319154575 0.0
6.812501920301792 0.6379560747176215 0.0
6.816644299135661 0.6773281218144781 0.0
[...]
POINT_DATA 2757
VECTORS vector double
0.0 0.0 0.0
0.0 0.0 0.0
0.0 0.0 0.0
0.0 0.0 0.0
0.0 0.0 0.0
0.0 0.0 0.0
0.0 0.0 0.0
0.0 0.0 0.0
0.0 0.0 0.0
0.0 0.0 0.0
0.0 0.0 0.0
0.0 0.0 0.0
0.0 0.0 0.0
0.0 0.0 0.0
0.0 0.0 0.0
0.0 0.0 0.0
0.0 0.0 0.0
0.0 0.0 0.0
0.0 0.0 0.0
0.0 0.0 0.0
0.0 0.0 0.0
0.0 0.0 0.0
0.0 0.0 0.0
0.0 0.0 0.0
0.0 0.0 0.0
0.0 0.0 0.0
0.0 0.0 0.0
0.0 0.0 0.0
0.0 0.0 0.0
0.0 0.0 0.0
0.0 0.0 0.0
0.0 0.0 0.0
1.5 -0.00629560160587 0.0
1.06204211931 -9.74815864337e-06 0.0
0.0 0.0 0.0
0.0 0.0 0.0
0.0 0.0 0.0
0.0 0.0 0.0
0.0 0.0 0.0
0.0 0.0 0.0
0.0 0.0 0.0
0.0 0.0 0.0
0.0 0.0 0.0
0.0 0.0 0.0
0.0 0.0 0.0
0.0 0.0 0.0
0.0 0.0 0.0
0.0 0.0 0.0
0.0 0.0 0.0
0.0 0.0 0.0
0.0 0.0 0.0
0.0 0.0 0.0
0.0 0.0 0.0
0.0 0.0 0.0
0.0 0.0 0.0
0.0 0.0 0.0
0.0 0.0 0.0
0.0 0.0 0.0
0.0 0.0 0.0
0.0 0.0 0.0
0.0 0.0 0.0
0.0 0.0 0.0
0.0 0.0 0.0
0.0 0.0 0.0
0.0 0.0 0.0
0.0 0.0 0.0
0.0 0.0 0.0
0.0 0.0 0.0
0.0 0.0 0.0
0.0 0.0 0.0
0.0 0.0 0.0
0.0 0.0 0.0
0.0 0.0 0.0
0.0 0.0 0.0
0.0 0.0 0.0
0.0 0.0 0.0
0.0 0.0 0.0
0.0 0.0 0.0
0.0 0.0 0.0
0.0 0.0 0.0
0.0 0.0 0.0
0.0 0.0 0.0
0.0 0.0 0.0
0.0 0.0 0.0
0.0 0.0 0.0
0.0 0.0 0.0
0.0 0.0 0.0
0.0 0.0 0.0
0.0 0.0 0.0
0.0 0.0 0.0
0.0 0.0 0.0
0.0 0.0 0.0
0.0 0.0 0.0
0.0 0.0 0.0
0.0 0.0 0.0
0.0 0.0 0.0
0.0 0.0 0.0
0.0 0.0 0.0
0.0 0.0 0.0
0.0 0.0 0.0
0.0 0.0 0.0
0.0 0.0 0.0
0.0 0.0 0.0
0.0 0.0 0.0
0.0 0.0 0.0
0.0 0.0 0.0
0.0 0.0 0.0
0.0 0.0 0.0
0.0 0.0 0.0
0.0 0.0 0.0
0.0 0.0 0.0
0.0 0.0 0.0
0.0 0.0 0.0
0.0 0.0 0.0
0.0 0.0 0.0
0.0 0.0 0.0
0.0 0.0 0.0
0.0 0.0 0.0
0.0 0.0 0.0
0.0 0.0 0.0
0.0 0.0 0.0
0.0 0.0 0.0
0.0 0.0 0.0
0.0 0.0 0.0
0.0 0.0 0.0
0.0 0.0 0.0
0.0 0.0 0.0
0.0 0.0 0.0
0.0 0.0 0.0
0.0 0.0 0.0
0.0 0.0 0.0
0.0 0.0 0.0
0.0 0.0 0.0
0.0 0.0 0.0
0.0 0.0 0.0
0.0 0.0 0.0
0.0 0.0 0.0
0.0 0.0 0.0
0.0 0.0 0.0
0.0 0.0 0.0
0.0 0.0 0.0
0.0 0.0 0.0
0.0 0.0 0.0
0.0 0.0 0.0
0.0 0.0 0.0
0.0 0.0 0.0
0.0 0.0 0.0
0.0 0.0 0.0
0.0 0.0 0.0
0.0 0.0 0.0
0.0 0.0 0.0
0.0 0.0 0.0
0.0 0.0 0.0
0.0 0.0 0.0
0.0 0.0 0.0
0.0 0.0 0.0
0.0 0.0 0.0
0.0 0.0 0.0
0.0 0.0 0.0
0.0 0.0 0.0
0.0 0.0 0.0
0.0 0.0 0.0
0.0 0.0 0.0
0.0 0.0 0.0
0.0 0.0 0.0
0.0 0.0 0.0
0.0 0.0 0.0
0.0 0.0 0.0
0.0 0.0 0.0
0.0 0.0 0.0
0.0 0.0 0.0
0.0 0.0 0.0
0.0 0.0 0.0
0.0 0.0 0.0
0.0 0.0 0.0
0.0 0.0 0.0
0.0 0.0 0.0
0.0 0.0 0.0
0.0 0.0 0.0
0.0 0.0 0.0
0.0 0.0 0.0
0.0 0.0 0.0
0.0 0.0 0.0
0.0 0.0 0.0
0.0 0.0 0.0
0.0 0.0 0.0
0.0 0.0 0.0
0.0 0.0 0.0
0.0 0.0 0.0
0.0 0.0 0.0
0.0 0.0 0.0
0.0 0.0 0.0
0.0 0.0 0.0
0.0 0.0 0.0
0.0 0.0 0.0
0.0 0.0 0.0
0.0 0.0 0.0
0.0 0.0 0.0
0.0 0.0 0.0
0.0 0.0 0.0
0.0 0.0 0.0
0.0 0.0 0.0
0.0 0.0 0.0
0.0 0.0 0.0
0.0 0.0 0.0
0.0 0.0 0.0
0.0 0.0 0.0
0.0 0.0 0.0
0.0 0.0 0.0
0.0 0.0 0.0
0.0 0.0 0.0
0.0 0.0 0.0
0.0 0.0 0.0
0.0 0.0 0.0
0.0 0.0 0.0
0.0 0.0 0.0
0.0 0.0 0.0
0.0 0.0 0.0
0.0 0.0 0.0
0.0 0.0 0.0
0.0 0.0 0.0
0.0 0.0 0.0
0.0 0.0 0.0
0.0 0.0 0.0
0.0 0.0 0.0
0.0 0.0 0.0
0.0 0.0 0.0
0.0 0.0 0.0
0.0 0.0 0.0
0.0 0.0 0.0
0.0 0.0 0.0
0.0 0.0 0.0
0.0 0.0 0.0
0.0 0.0 0.0
0.0 0.0 0.0
0.0 0.0 0.0
0.0 0.0 0.0
0.0 0.0 0.0
0.0 0.0 0.0
0.0 0.0 0.0
0.0 0.0 0.0
0.0 0.0 0.0
0.0 0.0 0.0
0.0 0.0 0.0
0.0 0.0 0.0
0.0 0.0 0.0
0.0 0.0 0.0
0.0 0.0 0.0
0.0 0.0 0.0
0.0 0.0 0.0
0.0 0.0 0.0
0.0 0.0 0.0
0.0 0.0 0.0
0.0 0.0 0.0
0.0 0.0 0.0
0.0 0.0 0.0
0.0 0.0 0.0
0.0 0.0 0.0
0.0 0.0 0.0
0.0 0.0 0.0
0.0 0.0 0.0
0.0 0.0 0.0
0.0 0.0 0.0
0.0 0.0 0.0
0.0 0.0 0.0
0.0 0.0 0.0
0.0 0.0 0.0
0.0 0.0 0.0
0.0 0.0 0.0
0.0 0.0 0.0
0.0 0.0 0.0
0.0 0.0 0.0
0.0 0.0 0.0
0.0 0.0 0.0
0.0 0.0 0.0
0.0 0.0 0.0
0.0 0.0 0.0
0.0 0.0 0.0
0.0 0.0 0.0
0.0 0.0 0.0
0.0 0.0 0.0
0.0 0.0 0.0
0.0 0.0 0.0
0.0 0.0 0.0
0.0 0.0 0.0
0.0 0.0 0.0
0.0 0.0 0.0
0.0 0.0 0.0
0.0 0.0 0.0
0.0 0.0 0.0
0.0 0.0 0.0
1.30381637317 -0.00190122998227 0.0
1.27555632314 0.000501547811716 0.0
1.24487316258 -0.00371325302921 0.0
1.19153008399 0.00615415068533 0.0
1.15786550794 -0.0104952910398 0.0
1.13367448923 0.00456595760652 0.0
1.1111396468 -0.00127885690924 0.0
1.10238656512 -5.41268478926e-05 0.0
1.09285083812 0.000785014031403 0.0
1.08795293924 -0.000682913208682 0.0
1.08721236784 -0.000140362890077 0.0
1.08959804155 0.000570631742165 0.0
1.09393984334 -0.000309977974866 0.0
1.09942593728 0.000481660896336 0.0
1.10952035359 0.00134277808136 0.0
1.11808891956 -0.00031520901008 0.0
1.13036274648 0.000520602751769 0.0
1.14672964278 -0.00139346041847 0.0
1.16520761368 0.000570951784733 0.0
1.17992472161 0.000808604172151 0.0
1.19927809365 -0.00213265475012 0.0
1.22330985966 0.00205147645231 0.0
1.24135476198 0.000402582658032 0.0
1.27330021958 -0.0033634328402 0.0
1.31295339144 0.000314024381085 0.0
1.34490999937 0.00273724041125 0.0
1.39321845796 0.00671179626727 0.0
1.4466889624 -0.0075438864104 0.0
1.52402113858 0.00606184735998 0.0
1.60146187594 -0.00753074922738 0.0
1.70670338208 -0.00758539150415 0.0
1.7973380194 0.00599211908737 0.0
1.87674761821 0.00586362755913 0.0
1.95128139501 -0.00722589391434 0.0
2.03671340402 -0.00490055179101 0.0
2.11610859627 0.00339381519228 0.0
2.2119521474 0.00449028353113 0.0
2.3167208204 -0.00349728426833 0.0
2.44504109773 0.00154428589875 0.0
2.54592684912 0.00212628057284 0.0
2.61694786534 -0.00413421320937 0.0
2.65689449318 0.00244169710293 0.0
2.6877194481 -0.00159423014296 0.0
2.73519085911 0.00631436862962 0.0
2.78513559492 -0.000413096783315 0.0
2.87120316877 -0.00821241560494 0.0
2.9308529197 0.000540442745569 0.0
2.93953795085 0.000543860062689 0.0
2.92457178129 -0.000851948178491 0.0
2.90538057862 -0.00136086061933 0.0
2.88603779278 0.000332741370149 0.0
2.90082381211 -0.000454900502964 0.0
2.91779335806 -0.000665719780583 0.0
2.89870184256 0.00370878629382 0.0
2.84106514503 -0.00134434038872 0.0
2.790517664 -0.00338214870922 0.0
2.71087087433 0.00395526956872 0.0
2.65047903186 -0.00317430852005 0.0
2.61033308013 0.00282250425718 0.0
2.55524126053 -0.00185238276027 0.0
2.47565025713 -0.0019921031635 0.0
2.36286482261 0.00134653314614 0.0
2.2588899465 -0.00277144536015 0.0
2.15080437087 -0.00355141038831 0.0
2.05760238313 0.00533367414837 0.0
1.96353156604 0.00711727395352 0.0
1.88982589716 -0.00597438794935 0.0
1.81651402296 -0.00572237647763 0.0
1.73128303119 0.00769401557964 0.0
1.63217558649 0.00370110104972 0.0
1.53232780005 0.0131135389517 0.0
1.47184046081 -0.024852800598 0.0
1.42011666348 0.0134153842504 0.0
1.34941514645 -0.00203632710802 0.0
1.32195758283 -0.00389194921188 0.0
1.27904715422 0.00200784046698 0.0
1.24564488385 7.34654002879e-05 0.0
1.2274538985 -0.00220952658637 0.0
1.20295897243 0.00235984117358 0.0
1.18213720379 -0.000516390396678 0.0
1.16510716433 0.000455892679578 0.0
1.1503886628 -0.00130566873945 0.0
1.13321270746 -0.00121848125 0.0
1.12253325342 0.000303672954625 0.0
1.10971956042 -0.000459324787455 0.0
1.09704904998 0.000150152810934 0.0
1.09000578081 -0.00053745114198 0.0
1.08276992335 0.000173547379992 0.0
1.07809729483 -0.000548597676468 0.0
1.07282184822 0.000383611922694 0.0
1.06935861978 -0.000102011400501 0.0
1.06717140729 -3.40791238943e-05 0.0
1.06549893797 8.66975652525e-05 0.0
1.06414540954 -5.18863311782e-05 0.0
1.06341120295 -5.79561446214e-05 0.0
1.06294201976 3.40078494348e-05 0.0
1.06258670691 -5.20023890891e-05 0.0
1.06229322596 1.17199839619e-05 0.0
1.06212219924 3.88976762831e-06 0.0
1.485 0.00168091024082 0.0
1.44 0.00658219718617 0.0
1.365 0.00960239953533 0.0
1.26 0.0130843462054 0.0
1.125 0.0300753486061 0.0
0.960000000002 0.0219481673597 0.0
0.765000000002 0.0186547315366 0.0
0.540000000001 0.00332342758598 0.0
0.285000000001 -0.0373459845005 0.0
1.06205048604 3.3945384702e-05 0.0
1.062014368 4.541196892e-05 0.0
1.06191173658 8.50395916995e-05 0.0
1.06181872161 -5.24278862597e-05 0.0
1.06150260379 -8.93914393125e-05 0.0
1.0611710153 -0.00013951331882 0.0
1.06103417083 -0.000124487756535 0.0
1.06088336087 -0.000270336564455 0.0
1.06012569511 -0.000207512838802 0.0
1.05737307728 0.000240143531157 0.0
1.04653391669 0.00153904328557 0.0
1.0305186114 0.00803606375462 0.0
0.983904604732 0.00907930785826 0.0
0.827608023511 0.0353312409669 0.0
0.441817850857 0.0269928404686 0.0
1.09249871643 0.0794118555008 0.0
1.06122064521 0.00216905943185 0.0
1.05888828129 0.0182669466523 0.0
1.35091612073 -0.269151710398 0.0
1.35173167359 0.337425138716 0.0
1.07474070302 -0.0910555280008 0.0
1.13990017476 -0.0939715540805 0.0
1.13422928113 0.13181456445 0.0
1.0556245684 -0.00853909322456 0.0
1.95633119743 -0.176895879087 0.0
1.92306765313 0.347832462346 0.0
1.18195070999 0.0758959158568 0.0
1.05732873476 0.00447633503858 0.0
1.18322123366 -0.0975213127634 0.0
2.50442623926 0.218236744697 0.0
2.61829238997 0.00913258713769 0.0
1.05103021568 0.0631569273651 0.0
2.81236865606 0.183707470983 0.0
1.03323661266 0.0404182176151 0.0
1.02656612739 0.219674801223 0.0
1.05747117851 0.000752887533128 0.0
1.26334443024 -0.214283640054 0.0
1.27049900726 0.204613334469 0.0
1.0588011192 0.00135162477139 0.0
0.967891075787 -0.153406970549 0.0
1.58571911932 -0.430001532867 0.0
1.69311581877 0.442071688334 0.0
1.04676680561 0.00790460834404 0.0
1.03287559404 -0.0363854127874 0.0
0.739940759902 0.0774674251248 0.0
0.771385479399 0.0805317495199 0.0
1.19872381394 0.0401508116475 0.0
1.10900197198 -0.0391045051375 0.0
1.96434859214 0.160346362032 0.0
2.01131668566 -0.20029746117 0.0
1.06495412695 0.00593458203358 0.0
0.9702018348 0.0690200164094 0.0
1.13105025322 -0.14380833975 0.0
1.13750228176 -0.494001729208 0.0
1.11158519623 0.60480407937 0.0
1.11705137768 0.213845616169 0.0
2.61927840072 0.0132262727234 0.0
2.67861529185 -0.0632630906115 0.0
1.19667733782 -0.0552456676812 0.0
1.19979994604 0.0570238578734 0.0
1.08121965825 0.0268148178903 0.0
0.977637180605 -0.286460169524 0.0
1.06816914131 0.338843427161 0.0
1.08544448396 -0.0275699826603 0.0
1.03290231957 0.00754031668719 0.0
1.278050246 0.0707089705756 0.0
1.04221321613 -0.000279188855244 0.0
1.03340807066 0.000428869988649 0.0
1.06189384962 0.000706313654445 0.0
1.13609760099 -0.0466280963993 0.0
1.00906786638 0.00784630615437 0.0
0.990678714639 0.16042419851 0.0
1.17726579713 -0.214947243831 0.0
1.23117998066 -0.10392834519 0.0
1.35097268894 0.126155356488 0.0
1.34138302212 -0.11744837707 0.0
1.14388890552 0.0474538626008 0.0
2.11090907575 -0.496978743667 0.0
2.28686903384 0.458171686375 0.0
1.02327173038 0.0068064682285 0.0
1.23741232119 0.113492570755 0.0
2.64526938483 0.269066702478 0.0
2.61428513232 -0.363999022421 0.0
2.69617450091 -0.0895169296722 0.0
2.53886541291 -0.288704134173 0.0
2.7683112375 0.191036913171 0.0
1.12120496656 0.110272073446 0.0
1.07764180122 0.0149618464539 0.0
2.97223367035 -0.145290426992 0.0
2.97136290158 0.0777593537517 0.0
1.06096106827 0.000774118670316 0.0
1.4207973476 0.0632061213509 0.0
1.31034783838 0.169576089051 0.0
1.28829332406 -0.365516976134 0.0
1.2401086802 0.556600244097 0.0
1.021820151 -0.000405711141736 0.0
0.991105752552 -0.0589550887202 0.0
1.33090268043 -0.20157897103 0.0
1.07212407963 0.0113452832823 0.0
1.65445671147 0.14903301402 0.0
1.41592984909 0.117565134417 0.0
2.97296982129 0.0276269514407 0.0
1.54882901721 0.280615854094 0.0
1.40379327054 -0.0962210573069 0.0
1.0263409785 -0.0143997321751 0.0
0.971021188953 0.0197494825313 0.0
1.39306503759 0.0703266410849 0.0
1.38780865066 0.19591672888 0.0
1.06334731383 0.0022468222076 0.0
1.30088401831 0.166459383304 0.0
0.533737732406 -0.154700101866 0.0
0.432437412518 0.264032612372 0.0
1.15554524107 0.145554136231 0.0
1.17084124424 0.0631326339069 0.0
1.18687152026 -0.0618523343884 0.0
1.00046657852 0.0338725275108 0.0
1.52568883416 0.684952681517 0.0
1.06151183224 0.00411911283681 0.0
1.12572141138 0.285980121295 0.0
1.55071425853 0.190521746202 0.0
1.49292176298 -0.173007270032 0.0
1.06061024207 0.00199953196493 0.0
0.969827110619 0.00554598894356 0.0
0.948932165313 0.00017548824118 0.0
1.0788859746 -0.00383049045413 0.0
1.06582633804 0.0466545046079 0.0
0.970127539999 0.00266658311964 0.0
1.30779947993 0.206808739901 0.0
0.819529145159 0.130560905473 0.0
0.611317873096 0.275590204273 0.0
1.9529602299 0.438285609194 0.0
1.82776603978 0.195364487677 0.0
1.90704228896 -0.525125434966 0.0
1.80232407318 -0.219590811622 0.0
0.852974583947 -0.31887485106 0.0
1.09765846161 0.0404181617791 0.0
1.05673415533 0.00976365317044 0.0
0.77646725572 0.308142245384 0.0
1.28149916473 -0.364148630265 0.0
1.04685239111 0.0218257098043 0.0
1.06390397072 -0.0427800349261 0.0
1.16950166201 -0.0525427572275 0.0
1.28939363421 -0.0995626715683 0.0
1.04053505682 0.0817658313604 0.0
1.26116606627 0.316183240839 0.0
1.10682420533 0.0428175815515 0.0
1.32553989138 -0.189566475023 0.0
1.17297414667 0.0500332599645 0.0
1.11789734791 -0.115623853326 0.0
0.430856449436 0.449242614783 0.0
0.701378097032 -0.181962395795 0.0
0.909369026811 -0.170619962185 0.0
0.959831755385 0.216858457808 0.0
1.99650034006 -0.101618802004 0.0
1.89467046437 0.0436850532401 0.0
0.590318909394 0.0219792652586 0.0
1.0600787902 0.000153863386395 0.0
1.52804912942 -0.718500559884 0.0
0.999866952961 -0.0224169914984 0.0
1.05178112404 0.0235102855178 0.0
1.0598402284 0.00293965217728 0.0
0.94875206326 0.0707300011492 0.0
0.933880131825 -0.018229572422 0.0
0.688525988354 -0.413115783447 0.0
0.904481269991 -0.00208822948395 0.0
0.66411843005 0.0820818758906 0.0
0.38546783067 0.164961049043 0.0
0.467329343507 -0.0508655657306 0.0
1.13364122006 0.0727942444893 0.0
0.793020381888 -0.0684279192984 0.0
1.03751190573 -0.335621857746 0.0
1.09640657999 -0.0524827878027 0.0
1.10900650474 -0.0230317388418 0.0
2.35769982268 -0.120418737055 0.0
2.4833587233 -0.0238209158687 0.0
1.06280478482 0.00994725535286 0.0
1.17124788594 -0.182692215152 0.0
1.18413005313 0.207051441512 0.0
1.01841592527 0.0744014537996 0.0
1.0599055513 0.00331855633538 0.0
1.19599612705 -0.0836378255669 0.0
1.19495468963 0.0929413544221 0.0
1.2569889056 -0.0885333226177 0.0
1.06001583546 0.00676211436258 0.0
0.89218206431 0.0164702347896 0.0
0.842200014245 0.0246042013431 0.0
2.0008527907 0.137060037356 0.0
2.00025248088 -0.116374571248 0.0
1.44324569775 0.49537146469 0.0
1.05408403428 0.00589962925254 0.0
1.10015786816 0.140928479941 0.0
2.22147708307 0.188398304758 0.0
2.15172011627 -0.166063294594 0.0
1.03791640109 -0.0640937090722 0.0
0.382370965759 0.024442119122 0.0
0.375737633265 0.0877044815944 0.0
0.806856468514 0.00931590004208 0.0
1.30975115773 0.068351170509 0.0
1.24695521403 0.0470949730631 0.0
1.08401978544 0.13746411996 0.0
0.746852354021 -0.370542361588 0.0
0.811070031586 0.43007834817 0.0
1.30373797369 -0.059034814706 0.0
1.19537823762 -0.0710552019484 0.0
1.0669299578 0.0258746227929 0.0
1.21419302218 -0.0724190452453 0.0
1.04562905983 -0.0184383228033 0.0
1.13374082523 -0.00099412185548 0.0
0.975638651538 0.378073648055 0.0
1.23227011353 -0.0413113317511 0.0
1.00322882803 -0.0170550618829 0.0
2.95570463471 -0.171780255319 0.0
1.2777238646 -0.138051999742 0.0
1.06158596397 0.000260442121568 0.0
1.05697896745 0.000948389290585 0.0
1.29347330549 0.15010257672 0.0
1.06214996517 0.00168863534241 0.0
2.10352162111 -0.276097393053 0.0
2.06447449644 0.18229748262 0.0
1.01994242484 2.83375535646e-05 0.0
1.29945017877 -0.206665997335 0.0
1.1960398757 0.0381287061121 0.0
1.1419115259 0.0362481880582 0.0
0.647569899352 -0.0894718825558 0.0
0.47712641506 0.37298425977 0.0
0.810020807693 0.0725394474867 0.0
0.766328802561 -0.0201648886669 0.0
0.850967309954 0.00860981670381 0.0
1.28473783325 0.0874084213086 0.0
1.14080694724 0.335435997267 0.0
1.04070145179 0.544910317973 0.0
1.05744613488 0.109734595782 0.0
1.07047170282 -0.0226792878225 0.0
0.808368148207 0.558439532812 0.0
1.14525899988 -0.0773316406035 0.0
0.84798010455 0.301203617266 0.0
0.844468036706 -0.155213126754 0.0
1.01579497909 0.122961866223 0.0
1.39738220697 -0.383240374999 0.0
0.917230774178 -0.0215497165271 0.0
1.06957593594 0.00546519310429 0.0
1.06080212523 0.00208513969802 0.0
1.06540395357 0.00288574475735 0.0
1.06111981368 0.00143035363259 0.0
1.38699626598 -0.172262551179 0.0
2.47524821932 0.527764056816 0.0
2.80172886623 -0.200298511387 0.0
1.05184122299 0.014311962731 0.0
2.78324117072 0.0864922471058 0.0
2.41798526508 -0.694172281734 0.0
1.10133348321 0.0195075700008 0.0
1.41572051963 0.190509101403 0.0
1.41416920446 -0.098525276941 0.0
1.06277315395 0.000918158740249 0.0
2.82658228403 -0.422829472227 0.0
2.7995547504 0.303300873447 0.0
0.812577627018 0.00267100804061 0.0
1.06035514905 0.0012718581599 0.0
1.15806345941 -0.0265936797215 0.0
1.0619945732 0.000227234468736 0.0
1.18714704922 -0.030208039724 0.0
1.05277031979 0.0353148569759 0.0
1.08197198502 0.0109998796638 0.0
2.61190555605 -0.00522963723086 0.0
1.03309995877 -0.480128683944 0.0
1.09211885362 -0.172851963475 0.0
1.04382908854 -0.0041689882144 0.0
1.18893877732 0.0319070481116 0.0
1.20778112711 0.40826019079 0.0
1.23997601016 -0.31800791343 0.0
1.2625033738 0.201444805953 0.0
1.0498971314 0.002977150493 0.0
0.833641989756 0.00252821708414 0.0
1.12653185553 0.0283837955712 0.0
3.03892656361 -0.00674155508233 0.0
1.64776627305 -0.236185852874 0.0
1.69012912678 0.227908888948 0.0
1.1640701864 0.026824142561 0.0
1.01368408031 -0.0941556328562 0.0
1.05676732349 0.00213484788893 0.0
0.728117036948 0.050999474879 0.0
0.756879350418 0.00898253644951 0.0
1.02082073613 0.0231320509664 0.0
1.25413850893 0.26253656971 0.0
0.755101601348 -0.00892307192618 0.0
1.09016615631 -0.00947116644317 0.0
0.849751468252 0.0178728002339 0.0
1.14695830006 -0.316153140301 0.0
1.16518285874 0.116042042403 0.0
1.92293260902 0.12279781697 0.0
1.1800950547 -0.30397864418 0.0
1.92104188445 -0.130728238179 0.0
1.70938019625 0.64386273744 0.0
1.06000669768 0.00211653797892 0.0
1.06923506236 0.00314562019651 0.0
2.8548962263 0.0382005452898 0.0
2.93798559293 0.0370754280153 0.0
1.08332083344 0.00430816150945 0.0
1.00586692851 0.0410856111329 0.0
1.43268832527 0.0983619631926 0.0
1.01200431114 0.0748801742117 0.0
1.11915427002 0.0555263421146 0.0
0.721690470678 -0.00215197515054 0.0
1.15896303209 -0.032579335806 0.0
2.68814662486 -0.0485822574351 0.0
2.75517450059 0.0897672087974 0.0
2.40763026726 0.198610564386 0.0
2.33444109273 -0.22669265066 0.0
1.69395662477 -0.797309425636 0.0
1.83447736313 0.548663437514 0.0
1.30809643421 -0.213559524296 0.0
0.968827282307 -0.0173284590569 0.0
1.14577592562 0.0518024907237 0.0
1.06203404397 0.00275801061481 0.0
0.283008116937 0.045061759849 0.0
0.47287214221 0.0430218667871 0.0
2.32646574328 -0.371550832559 0.0
1.05831871409 0.00272466661422 0.0
0.464926745759 -0.156314981951 0.0
0.0636480074203 0.0653861663997 0.0
1.09568512649 0.0170606593275 0.0
1.682976383 -0.171298765174 0.0
1.66076082661 0.525491704474 0.0
0.944720497907 -0.73992825387 0.0
1.56824145198 0.336189429253 0.0
1.22502791873 0.181793435054 0.0
1.10626371064 -0.0765052738425 0.0
1.18484474535 -0.0679250004396 0.0
0.81924502606 -0.038765694745 0.0
1.04238434484 0.0126422954952 0.0
1.19518887571 0.136913971136 0.0
1.18826617843 -0.118452369442 0.0
0.642798221033 0.297446337273 0.0
1.02782481128 0.0246591745528 0.0
1.0608917653 -4.17608864518e-06 0.0
1.06925454264 0.0388106371708 0.0
1.24399063309 0.163173485733 0.0
1.23308358974 -0.157085808718 0.0
0.148929631241 -0.0730216749884 0.0
0.0322509803329 0.073688301591 0.0
1.44969661261 0.00677460353467 0.0
1.37952322299 -0.0805207691847 0.0
1.18072255583 0.0625856070228 0.0
1.04417153686 -0.00327882547403 0.0
-0.06143585725 -0.187617370951 0.0
0.320974618895 0.0688252815548 0.0
2.08089202354 -0.552029295832 0.0
2.13036338299 0.204990432388 0.0
2.6702609201 -0.0295434338716 0.0
2.64861119743 0.0665488143316 0.0
1.06335682351 0.00413740569224 0.0
-0.215908810227 -0.141121879283 0.0
0.286504961509 -0.00629746742911 0.0
1.05087245715 0.197658714362 0.0
1.04197123757 -0.119165773906 0.0
0.877348225391 0.0949049126193 0.0
1.03496862373 -0.00197045316424 0.0
1.16344976911 0.0694434974362 0.0
1.9405103165 -0.293766650271 0.0
1.0860497249 0.052826705669 0.0
1.93946411027 0.240746332205 0.0
1.22748670537 -0.125640912628 0.0
0.971706872887 0.118801776832 0.0
1.04192350502 0.00562578939963 0.0
1.99904440244 -0.145614400761 0.0
1.9207090525 0.188362738616 0.0
1.12260139734 0.211782582005 0.0
1.63776460878 -0.103554921888 0.0
1.48022485635 -0.175447157873 0.0