# vtk DataFile Version 2.0
2D Simulation Python
ASCII
DATASET UNSTRUCTURED_GRID
FIELD FieldData 1
NODES 1 2 int
2757 5098

POINTS 2757 double
0.0 1.0 0.0
1.85 1.0 0.0
2.15 1.0 0.0
2.5312 0.9845000000000002 0.0
2.804 0.8597000000000001 0.0
3.1897 0.7164000000000001 0.0
3.4784 0.6349999999999998 0.0
3.8514 0.5613000000000001 0.0
4.1492 0.5257999999999998 0.0
4.5167 0.5049000000000001 0.0
4.8167 0.5003000000000002 0.0
5.1833 0.5003000000000002 0.0
5.4833 0.5049000000000001 0.0
5.8508 0.5257999999999998 0.0
6.1486 0.5613000000000001 0.0
6.5216 0.6349999999999998 0.0
6.8103 0.7164000000000001 0.0
7.196 0.8597000000000001 0.0
7.4688 0.9845000000000002 0.0
7.85 1.0 0.0
8.15 1.0 0.0
10.0 1.0 0.0
2.0 0.8500000000000001 0.0
2.604294 0.7837869999999998 0.0
3.292593 0.5288279999999999 0.0
3.982247 0.3922810000000001 0.0
4.6644 0.3515969999999999 0.0
5.3356 0.3515969999999999 0.0
6.017753 0.3922810000000001 0.0
6.707407 0.5288279999999999 0.0
7.395706 0.7837869999999998 0.0
8.0 0.8500000000000001 0.0
0.0 0.0 0.0
10.0 0.0 0.0
0.09589869952291516 1.0 0.0
0.1888147635033504 1.0 0.0
0.2788409054415558 1.0 0.0
0.3660670333996566 1.0 0.0
0.4505802302878947 1.0 0.0
0.5324648790931192 1.0 0.0
0.6118027156217198 1.0 0.0
0.6886729728356462 1.0 0.0
0.7631523848471844 1.0 0.0
0.8353153174851218 1.0 0.0
0.9052338217649879 1.0 0.0
0.9729776980408794 1.0 0.0
1.038614580849525 1.0 0.0
1.102210010843471 1.0 0.0
1.163827479442682 1.0 0.0
1.223528508355988 1.0 0.0
1.281372692526642 1.0 0.0
1.337417785230084 1.0 0.0
1.391719743967992 1.0 0.0
1.444332799787133 1.0 0.0
1.495309459666087 1.0 0.0
1.544700643890327 1.0 0.0
1.592555642113107 1.0 0.0
1.638922222094626 1.0 0.0
1.683846722920012 1.0 0.0
1.727373960837219 1.0 0.0
1.769547395111623 1.0 0.0
1.810409141995569 1.0 0.0
2.188119999999948 0.9984500000000022 0.0
2.226239999999895 0.9969000000000042 0.0
2.264359999999671 0.9953500000000134 0.0
2.302479999999619 0.9938000000000156 0.0
2.340599999999567 0.9922500000000177 0.0
2.378719999999689 0.9907000000000128 0.0
2.416839999999636 0.989150000000015 0.0
2.454959999999585 0.987600000000017 0.0
2.493079999999706 0.9860500000000121 0.0
2.839063636363584 0.8466727272727468 0.0
2.874127272727092 0.8336454545455219 0.0
2.909190909090677 0.8206181818182683 0.0
2.944254545454222 0.8075909090910295 0.0
2.97931818181763 0.7945636363638415 0.0
3.014381818181257 0.7815363636365724 0.0
3.049445454545112 0.7685090909092184 0.0
3.084509090908891 0.7554818181818926 0.0
3.119572727272518 0.7424545454546234 0.0
3.154636363636221 0.729427272727326 0.0
3.515699999999767 0.6276300000000459 0.0
3.552999999999703 0.6202600000000585 0.0
3.59029999999978 0.6128900000000433 0.0
3.627599999999699 0.6055200000000595 0.0
3.664899999999474 0.5981500000001038 0.0
3.702199999999584 0.5907800000000822 0.0
3.739499999999687 0.5834100000000619 0.0
3.776799999999796 0.5760400000000403 0.0
3.814099999999899 0.56867000000002 0.0
4.185950000000035 0.5237099999999979 0.0
4.22269999999962 0.5216200000000215 0.0
4.259449999999689 0.5195300000000176 0.0
4.296199999999274 0.5174400000000412 0.0
4.332949999999307 0.5153500000000395 0.0
4.369699999999686 0.5132600000000178 0.0
4.406449999999271 0.5111700000000414 0.0
4.443200000000032 0.5090799999999982 0.0
4.47994999999962 0.5069900000000217 0.0
4.85335999999993 0.5003000000000002 0.0
4.890019999999688 0.5003000000000002 0.0
4.926679999999445 0.5003000000000002 0.0
4.963339999999202 0.5003000000000002 0.0
4.99999999999948 0.5003000000000002 0.0
5.036659999999757 0.5003000000000002 0.0
5.073319999999861 0.5003000000000002 0.0
5.109979999999966 0.5003000000000002 0.0
5.14664000000007 0.5003000000000002 0.0
5.520050000000034 0.506990000000002 0.0
5.556799999999619 0.5090799999999784 0.0
5.593549999999689 0.5111699999999824 0.0
5.630299999999274 0.5132599999999587 0.0
5.667049999999306 0.5153499999999605 0.0
5.703799999999686 0.5174399999999821 0.0
5.740549999999271 0.5195299999999585 0.0
5.777300000000031 0.5216200000000017 0.0
5.814049999999619 0.5237099999999782 0.0
6.185899999999967 0.5686699999999937 0.0
6.223200000000103 0.5760400000000205 0.0
6.26049999999988 0.5834099999999763 0.0
6.297799999999683 0.5907799999999372 0.0
6.335099999999809 0.5981499999999621 0.0
6.372399999999617 0.6055199999999242 0.0
6.409700000000087 0.6128900000000171 0.0
6.446999999999897 0.6202599999999795 0.0
6.484300000000033 0.6276300000000062 0.0
6.845363636363626 0.7294272727272689 0.0
6.880427272727252 0.7424545454545377 0.0
6.915490909090877 0.7554818181818067 0.0
6.950554545454437 0.7685090909090506 0.0
6.985618181818142 0.7815363636363493 0.0
7.020681818181658 0.7945636363635772 0.0
7.055745454545396 0.8075909090908875 0.0
7.090809090908994 0.8206181818181463 0.0
7.125872727272663 0.8336454545454308 0.0
7.160936363636331 0.8466727272727155 0.0
7.50692 0.9860500000000001 0.0
7.545039999999653 0.987599999999986 0.0
7.583159999999308 0.989149999999972 0.0
7.621279999999653 0.990699999999986 0.0
7.659399999999653 0.992249999999986 0.0
7.697519999999654 0.993799999999986 0.0
7.735639999999999 0.9953500000000001 0.0
7.773759999999654 0.9968999999999859 0.0
7.811879999999999 0.99845 0.0
8.189361702128089 1.0 0.0
8.228723404256021 1.0 0.0
8.268085106383511 1.0 0.0
8.307446808511347 1.0 0.0
8.346808510638837 1.0 0.0
8.386170212766556 1.0 0.0
8.425531914894163 1.0 0.0
8.464893617021728 1.0 0.0
8.504255319149491 1.0 0.0
8.543617021276981 1.0 0.0
8.582978723404818 1.0 0.0
8.622340425532308 1.0 0.0
8.661702127660144 1.0 0.0
8.701063829787634 1.0 0.0
8.740425531915472 1.0 0.0
8.779787234042962 1.0 0.0
8.819148936170695 1.0 0.0
8.858510638298288 1.0 0.0
8.897872340425867 1.0 0.0
8.937234042553614 1.0 0.0
8.976595744681104 1.0 0.0
9.01595744680894 1.0 0.0
9.05531914893643 1.0 0.0
9.094680851064266 1.0 0.0
9.134042553191756 1.0 0.0
9.173404255319593 1.0 0.0
9.212765957447777 1.0 0.0
9.252127659575525 1.0 0.0
9.291489361703103 1.0 0.0
9.330851063830696 1.0 0.0
9.37021276595843 1.0 0.0
9.40957446808592 1.0 0.0
9.448936170213758 1.0 0.0
9.488297872341246 1.0 0.0
9.527659574469084 1.0 0.0
9.567021276596574 1.0 0.0
9.60638297872441 1.0 0.0
9.6457446808519 1.0 0.0
9.685106382979662 1.0 0.0
9.724468085107226 1.0 0.0
9.763829787234833 1.0 0.0
9.803191489362552 1.0 0.0
9.842553191490042 1.0 0.0
9.881914893617878 1.0 0.0
9.921276595745368 1.0 0.0
9.960638297872762 1.0 0.0
1.85511112605661 0.9611771432347338 0.0
1.87009618943224 0.9250000000001632 0.0
1.89393398282189 0.8939339828221454 0.0
1.924999999999842 0.8700961894324258 0.0
1.96117714323457 0.8551111260566537 0.0
2.51911222351653 0.9468943483281596 0.0
2.517261556501524 0.9074371004566797 0.0
2.525776366502026 0.8688651237292935 0.0
2.544066041990905 0.8338538805560812 0.0
2.570861958867948 0.8048318507040559 0.0
3.183399471121889 0.6773269167743563 0.0
3.187540640753236 0.6379663627768488 0.0
3.201835045303677 0.6010600964327384 0.0
3.225286972057683 0.569178916585472 0.0
3.256262818048977 0.5445435870349058 0.0
3.851311808445927 0.5217631357369752 0.0
3.861560068046178 0.4835774762734121 0.0
3.881432344049533 0.449397598275363 0.0
3.909547162863183 0.4215996059626037 0.0
3.94395004882614 0.4021159499676259 0.0
4.520996695771619 0.4658028333951991 0.0
4.53530678067777 0.4291658097571295 0.0
4.558646801051933 0.3975067908214496 0.0
4.589412725279813 0.3730015273561684 0.0
4.625490180094372 0.3573341317450809 0.0
5.188792203110742 0.4613608817416055 0.0
5.204215644069836 0.4251871800409458 0.0
5.228510353354086 0.3942649174043062 0.0
5.260006687237601 0.3707192133874752 0.0
5.296540073359643 0.3561682366420743 0.0
5.860011021539801 0.4873401270919612 0.0
5.878953813569356 0.4526244912484382 0.0
5.906311508814615 0.4240664581795365 0.0
5.94018225175748 0.4036513286316637 0.0
5.978211412052326 0.3927983240146977 0.0
6.536647498529492 0.5983695458969855 0.0
6.560754133038625 0.5669515963705687 0.0
6.592240694919373 0.5429346481718567 0.0
6.628913908052386 0.5279916625832858 0.0
6.668219207005813 0.523163531066366 0.0
7.216556713460987 0.8259527451430548 0.0
7.245211027874307 0.7987427112527251 0.0
7.279975409646859 0.7799572530799906 0.0
7.318438515914653 0.7708993761205898 0.0
7.357932451203028 0.7721973569569427 0.0
7.855111126056608 0.9611771432347389 0.0
7.87009618943239 0.9249999999999031 0.0
7.893933982821849 0.893933982822186 0.0
7.924999999999724 0.870096189432493 0.0
7.961177143234544 0.8551111260566602 0.0
2.038822856765458 0.8551111260566613 0.0
2.074999999999886 0.8700961894322686 0.0
2.106066017177859 0.8939339828218953 0.0
2.129903810567719 0.9250000000000924 0.0
2.144888873943354 0.9611771432345996 0.0
2.642072213105018 0.7722253821844589 0.0
2.68155866996913 0.7709276471286509 0.0
2.720014493007171 0.7799838089221203 0.0
2.754772291926727 0.7987657099507169 0.0
2.783421180466018 0.8259705914503371 0.0
3.331781228837649 0.5232065749202437 0.0
3.371075251522289 0.5280333212977997 0.0
3.407737943504146 0.5429720199040406 0.0
3.439215472227839 0.5669820778975886 0.0
3.463315190802363 0.5983910139513634 0.0
4.021785797379926 0.3928173305182819 0.0
4.059810087100174 0.4036689451393993 0.0
4.093676492056691 0.424081460024671 0.0
4.121030683473297 0.4526358355315954 0.0
4.139971049410406 0.4873470251801275 0.0
4.703463602180634 0.3561536952559329 0.0
4.740000641190358 0.3707061269192393 0.0
4.771500124319702 0.3942541852163063 0.0
4.795797262775971 0.4251795396981159 0.0
4.811222245889969 0.4613568583244396 0.0
5.37450551763444 0.3573491929815369 0.0
5.410579205991976 0.3730149529290054 0.0
5.44134191828321 0.3975176580649515 0.0
5.464679501979187 0.429173371825681 0.0
5.478988092924676 0.4658065705894096 0.0
6.056057512867302 0.4020971861494807 0.0
6.090465040120479 0.4215834706823507 0.0
6.118583651902696 0.4493852132201999 0.0
6.138458608873377 0.4835697024226929 0.0
6.14870825106575 0.521760513510746 0.0
6.743759676449819 0.5445060199603367 0.0
6.774744567243897 0.569148542912274 0.0
6.798203341851458 0.6010390319154575 0.0
6.812501920301792 0.6379560747176215 0.0
6.816644299135661 0.6773281218144781 0.0
[...]
POINT_DATA 2757
VECTORS vector double
0.0 0.0 0.0
0.0 0.0 0.0
0.0 0.0 0.0
0.0 0.0 0.0
0.0 0.0 0.0
0.0 0.0 0.0
0.0 0.0 0.0
0.0 0.0 0.0
0.0 0.0 0.0
0.0 0.0 0.0
0.0 0.0 0.0
0.0 0.0 0.0
0.0 0.0 0.0
0.0 0.0 0.0
0.0 0.0 0.0
0.0 0.0 0.0
0.0 0.0 0.0
0.0 0.0 0.0
0.0 0.0 0.0
0.0 0.0 0.0
0.0 0.0 0.0
0.0 0.0 0.0
0.0 0.0 0.0
0.0 0.0 0.0
0.0 0.0 0.0
0.0 0.0 0.0
0.0 0.0 0.0
0.0 0.0 0.0
0.0 0.0 0.0
0.0 0.0 0.0
0.0 0.0 0.0
0.0 0.0 0.0
1.5 -0.00177367467782 0.0
1.11548959881 5.32774830159e-06 0.0
0.0 0.0 0.0
0.0 0.0 0.0
0.0 0.0 0.0
0.0 0.0 0.0
0.0 0.0 0.0
0.0 0.0 0.0
0.0 0.0 0.0
0.0 0.0 0.0
0.0 0.0 0.0
0.0 0.0 0.0
0.0 0.0 0.0
0.0 0.0 0.0
0.0 0.0 0.0
0.0 0.0 0.0
0.0 0.0 0.0
0.0 0.0 0.0
0.0 0.0 0.0
0.0 0.0 0.0
0.0 0.0 0.0
0.0 0.0 0.0
0.0 0.0 0.0
0.0 0.0 0.0
0.0 0.0 0.0
0.0 0.0 0.0
0.0 0.0 0.0
0.0 0.0 0.0
0.0 0.0 0.0
0.0 0.0 0.0
0.0 0.0 0.0
0.0 0.0 0.0
0.0 0.0 0.0
0.0 0.0 0.0
0.0 0.0 0.0
0.0 0.0 0.0
0.0 0.0 0.0
0.0 0.0 0.0
0.0 0.0 0.0
0.0 0.0 0.0
0.0 0.0 0.0
0.0 0.0 0.0
0.0 0.0 0.0
0.0 0.0 0.0
0.0 0.0 0.0
0.0 0.0 0.0
0.0 0.0 0.0
0.0 0.0 0.0
0.0 0.0 0.0
0.0 0.0 0.0
0.0 0.0 0.0
0.0 0.0 0.0
0.0 0.0 0.0
0.0 0.0 0.0
0.0 0.0 0.0
0.0 0.0 0.0
0.0 0.0 0.0
0.0 0.0 0.0
0.0 0.0 0.0
0.0 0.0 0.0
0.0 0.0 0.0
0.0 0.0 0.0
0.0 0.0 0.0
0.0 0.0 0.0
0.0 0.0 0.0
0.0 0.0 0.0
0.0 0.0 0.0
0.0 0.0 0.0
0.0 0.0 0.0
0.0 0.0 0.0
0.0 0.0 0.0
0.0 0.0 0.0
0.0 0.0 0.0
0.0 0.0 0.0
0.0 0.0 0.0
0.0 0.0 0.0
0.0 0.0 0.0
0.0 0.0 0.0
0.0 0.0 0.0
0.0 0.0 0.0
0.0 0.0 0.0
0.0 0.0 0.0
0.0 0.0 0.0
0.0 0.0 0.0
0.0 0.0 0.0
0.0 0.0 0.0
0.0 0.0 0.0
0.0 0.0 0.0
0.0 0.0 0.0
0.0 0.0 0.0
0.0 0.0 0.0
0.0 0.0 0.0
0.0 0.0 0.0
0.0 0.0 0.0
0.0 0.0 0.0
0.0 0.0 0.0
0.0 0.0 0.0
0.0 0.0 0.0
0.0 0.0 0.0
0.0 0.0 0.0
0.0 0.0 0.0
0.0 0.0 0.0
0.0 0.0 0.0
0.0 0.0 0.0
0.0 0.0 0.0
0.0 0.0 0.0
0.0 0.0 0.0
0.0 0.0 0.0
0.0 0.0 0.0
0.0 0.0 0.0
0.0 0.0 0.0
0.0 0.0 0.0
0.0 0.0 0.0
0.0 0.0 0.0
0.0 0.0 0.0
0.0 0.0 0.0
0.0 0.0 0.0
0.0 0.0 0.0
0.0 0.0 0.0
0.0 0.0 0.0
0.0 0.0 0.0
0.0 0.0 0.0
0.0 0.0 0.0
0.0 0.0 0.0
0.0 0.0 0.0
0.0 0.0 0.0
0.0 0.0 0.0
0.0 0.0 0.0
0.0 0.0 0.0
0.0 0.0 0.0
0.0 0.0 0.0
0.0 0.0 0.0
0.0 0.0 0.0
0.0 0.0 0.0
0.0 0.0 0.0
0.0 0.0 0.0
0.0 0.0 0.0
0.0 0.0 0.0
0.0 0.0 0.0
0.0 0.0 0.0
0.0 0.0 0.0
0.0 0.0 0.0
0.0 0.0 0.0
0.0 0.0 0.0
0.0 0.0 0.0
0.0 0.0 0.0
0.0 0.0 0.0
0.0 0.0 0.0
0.0 0.0 0.0
0.0 0.0 0.0
0.0 0.0 0.0
0.0 0.0 0.0
0.0 0.0 0.0
0.0 0.0 0.0
0.0 0.0 0.0
0.0 0.0 0.0
0.0 0.0 0.0
0.0 0.0 0.0
0.0 0.0 0.0
0.0 0.0 0.0
0.0 0.0 0.0
0.0 0.0 0.0
0.0 0.0 0.0
0.0 0.0 0.0
0.0 0.0 0.0
0.0 0.0 0.0
0.0 0.0 0.0
0.0 0.0 0.0
0.0 0.0 0.0
0.0 0.0 0.0
0.0 0.0 0.0
0.0 0.0 0.0
0.0 0.0 0.0
0.0 0.0 0.0
0.0 0.0 0.0
0.0 0.0 0.0
0.0 0.0 0.0
0.0 0.0 0.0
0.0 0.0 0.0
0.0 0.0 0.0
0.0 0.0 0.0
0.0 0.0 0.0
0.0 0.0 0.0
0.0 0.0 0.0
0.0 0.0 0.0
0.0 0.0 0.0
0.0 0.0 0.0
0.0 0.0 0.0
0.0 0.0 0.0
0.0 0.0 0.0
0.0 0.0 0.0
0.0 0.0 0.0
0.0 0.0 0.0
0.0 0.0 0.0
0.0 0.0 0.0
0.0 0.0 0.0
0.0 0.0 0.0
0.0 0.0 0.0
0.0 0.0 0.0
0.0 0.0 0.0
0.0 0.0 0.0
0.0 0.0 0.0
0.0 0.0 0.0
0.0 0.0 0.0
0.0 0.0 0.0
0.0 0.0 0.0
0.0 0.0 0.0
0.0 0.0 0.0
0.0 0.0 0.0
0.0 0.0 0.0
0.0 0.0 0.0
0.0 0.0 0.0
0.0 0.0 0.0
0.0 0.0 0.0
0.0 0.0 0.0
0.0 0.0 0.0
0.0 0.0 0.0
0.0 0.0 0.0
0.0 0.0 0.0
0.0 0.0 0.0
0.0 0.0 0.0
0.0 0.0 0.0
0.0 0.0 0.0
0.0 0.0 0.0
0.0 0.0 0.0
0.0 0.0 0.0
0.0 0.0 0.0
0.0 0.0 0.0
0.0 0.0 0.0
0.0 0.0 0.0
0.0 0.0 0.0
0.0 0.0 0.0
0.0 0.0 0.0
0.0 0.0 0.0
0.0 0.0 0.0
0.0 0.0 0.0
0.0 0.0 0.0
0.0 0.0 0.0
0.0 0.0 0.0
0.0 0.0 0.0
0.0 0.0 0.0
0.0 0.0 0.0
0.0 0.0 0.0
0.0 0.0 0.0
0.0 0.0 0.0
0.0 0.0 0.0
0.0 0.0 0.0
0.0 0.0 0.0
0.0 0.0 0.0
0.0 0.0 0.0
0.0 0.0 0.0
0.0 0.0 0.0
0.0 0.0 0.0
0.0 0.0 0.0
0.0 0.0 0.0
0.0 0.0 0.0
0.0 0.0 0.0
0.0 0.0 0.0
0.0 0.0 0.0
1.62863464545 -0.000614563788563 0.0
1.60867501257 -0.000417473238417 0.0
1.59669702156 -0.00102481332348 0.0
1.56373130624 0.00488176536892 0.0
1.54052670305 -0.0136471914672 0.0
1.4913613963 0.00850769011404 0.0
1.42677807919 -0.0050487597117 0.0
1.38152485601 0.000170227312308 0.0
1.31680093361 0.0070267566707 0.0
1.26477193064 -0.00671970208836 0.0
1.23083382241 0.000115625638069 0.0
1.20265042065 -0.000298219817068 0.0
1.1932614835 0.000408729112806 0.0
1.18623981991 -0.00103388392723 0.0
1.18661983094 0.000950137366576 0.0
1.19114023289 -0.00042574168316 0.0
1.19957685179 0.000181833490674 0.0
1.21375761489 -0.00122585421685 0.0
1.2318922023 0.000601813197815 0.0
1.24755344365 0.000841742762315 0.0
1.26883983669 -0.00226021699708 0.0
1.29545442145 0.00191072302181 0.0
1.31497412905 0.000540948817694 0.0
1.34832513692 -0.0032600749228 0.0
1.38809272148 0.000377462574927 0.0
1.41947196179 0.00272020981083 0.0
1.46726573728 0.00671229913332 0.0
1.52112822092 -0.00754898983076 0.0
1.59823486221 0.00572355274757 0.0
1.67420212546 -0.00699762696251 0.0
1.78021168003 -0.00735224838416 0.0
1.87390583196 0.0056461325711 0.0
1.95978031914 0.00674193940784 0.0
2.04397805401 -0.0076771952896 0.0
2.14638723713 -0.00599839790239 0.0
2.24204561802 0.00318837111668 0.0
2.34924384011 0.00327136904314 0.0
2.45763974702 -0.00232789092274 0.0
2.58263690146 0.00205678999649 0.0
2.67806486366 0.00229655626562 0.0
2.75574207328 -0.00532238510636 0.0
2.81161580452 0.00355479908051 0.0
2.86772378371 -0.00258742129444 0.0
2.95006251493 0.00604696569738 0.0
3.01713545812 0.000299608366426 0.0
3.11294871306 -0.00758101336741 0.0
3.18319447997 0.000737385780082 0.0
3.20737968399 0.00099426725913 0.0
3.22112970739 0.0016545760699 0.0
3.23240558808 -0.000794033757504 0.0
3.26459322348 -0.00241518485045 0.0
3.30435495013 0.000466234467496 0.0
3.33157020262 0.00089987577631 0.0
3.33860268303 0.000182416959363 0.0
3.32402354584 -0.000652609089155 0.0
3.29426957356 -0.00169780853446 0.0
3.23947458498 0.00186200619574 0.0
3.20355064183 -0.00298690879872 0.0
3.16428678649 0.00393820623513 0.0
3.10386757078 -0.00123039231718 0.0
3.02407423133 -0.00203007041067 0.0
2.92238681988 0.000857063896013 0.0
2.82430311737 -0.00178479496914 0.0
2.70949453694 -0.00361179531889 0.0
2.58901213373 0.00850585348532 0.0
2.44857357365 0.00992534621563 0.0
2.33282084053 -0.00944976463915 0.0
2.22176794545 -0.00735370077952 0.0
2.1015906473 0.010143193934 0.0
1.96737510772 0.00432614659755 0.0
1.83086245756 0.0174398428748 0.0
1.7484156545 -0.0347672371881 0.0
1.6664622743 0.0195116910064 0.0
1.55723601636 -0.003602243978 0.0
1.51415553095 -0.00592379556871 0.0
1.44266557657 0.0032597320148 0.0
1.38597614144 4.6384597107e-05 0.0
1.35494446544 -0.00332224495964 0.0
1.31316393787 0.00386727880287 0.0
1.27946851648 -0.000804520333332 0.0
1.25335506158 0.000577786519511 0.0
1.2322414546 -0.00174063962143 0.0
1.20938352839 -0.00166459178681 0.0
1.19560625842 0.000423919052336 0.0
1.17916630666 -0.000659675369363 0.0
1.16281871155 0.000189896491532 0.0
1.15336648147 -0.000652510866813 0.0
1.14337017388 0.000241504610797 0.0
1.13694761022 -0.000726800671494 0.0
1.12961476537 0.000533690857443 0.0
1.12474279315 -0.000135805566053 0.0
1.12162584403 -1.14608335923e-05 0.0
1.11930293409 5.93215190534e-05 0.0
1.11764436849 -5.77841727962e-05 0.0
1.11666097632 -4.35347616783e-05 0.0
1.1162026968 3.00589742524e-05 0.0
1.11582440477 -5.32598358448e-05 0.0
1.11549541666 1.98181601591e-05 0.0
1.11542686264 -7.59450992156e-06 0.0
1.485 -0.00230654934724 0.0
1.44 -0.00585665304643 0.0
1.365 -0.0161994224248 0.0
1.26 -0.0133454830425 0.0
1.125 -0.00135390979294 0.0
0.960000000002 -0.0105975085314 0.0
0.765000000002 -0.00715910011596 0.0
0.540000000001 -0.0189924899555 0.0
0.285000000001 -0.00670016215335 0.0
1.11535179107 6.52731254285e-06 0.0
1.11544412285 1.97499545307e-05 0.0
1.11546733402 2.411207409e-05 0.0
1.11554850747 1.52730794196e-05 0.0
1.11572681561 7.79856499744e-06 0.0
1.1158138477 6.20062120032e-05 0.0
1.11538869669 0.000137461227119 0.0
1.11300810617 0.000345281557439 0.0
1.10355217841 0.00150353460903 0.0
1.08015994969 0.00469707824464 0.0
1.02276402674 0.00794372401903 0.0
0.93234426456 0.00921177447064 0.0
0.775807982188 0.000267238280232 0.0
0.530431094005 0.0143698739102 0.0
0.212192485346 0.0165081050199 0.0
1.16657020262 0.0889871009017 0.0
1.11209766295 0.000191647112666 0.0
1.10677381959 0.0317963173482 0.0
1.4257243614 -0.280973221119 0.0
1.50390515156 0.420027048267 0.0
1.11936911425 -0.0738262250241 0.0
1.24607161182 -0.114161500136 0.0
1.20852121918 0.19745515016 0.0
1.09141878675 0.0646269359914 0.0
2.02807254898 -0.258394906515 0.0
2.02086743533 0.320529644832 0.0
1.23349147892 0.108530758014 0.0
1.09251861603 0.00315173514764 0.0
1.21844904274 -0.11105536084 0.0
2.54579319113 0.0954716168728 0.0
2.58602649801 -0.0889294366344 0.0
1.04876114571 0.180920114815 0.0
2.7107299243 0.0189219556979 0.0
1.05278556144 0.0841938152584 0.0
0.991365221255 0.153378236404 0.0
1.06229667439 -0.00541689449685 0.0
1.32070154099 -0.178571791287 0.0
1.2924978647 0.293183415894 0.0
1.05557067353 -0.000836901959909 0.0
0.883398698719 -0.111489574101 0.0
1.64914561375 -0.400826665086 0.0
1.8130660561 0.409848851532 0.0
1.02745866351 0.0134689917962 0.0
1.02858723964 -0.0140006547935 0.0
0.495455113908 0.109137107773 0.0
0.551322996376 -0.00201960284504 0.0
1.14376619976 -0.073231490115 0.0
1.05610307617 0.0926117066512 0.0
2.06668572912 0.309778076926 0.0
2.04301053342 -0.238870774436 0.0
1.11687679634 0.0083260755042 0.0
0.861527448506 0.109334559619 0.0
1.01987050751 -0.188268674826 0.0
1.09921808196 -0.408366714171 0.0
0.746689319 0.284013213123 0.0
0.72234435126 0.302128594922 0.0
2.86539508752 0.06435632756 0.0
2.74858822113 -0.0862588830551 0.0
1.2685199015 -0.0644475082534 0.0
1.30357215535 0.0957630165191 0.0
1.1450160912 0.03578839877 0.0
0.936122084784 -0.145237198449 0.0
0.884373111768 0.226848366102 0.0
1.15508681013 0.000915484781127 0.0
0.943472412605 0.099012003429 0.0
1.16039414136 0.103001892856 0.0
0.936787010418 -0.00974520269943 0.0
0.931253607868 -0.000423355572902 0.0
1.11518390771 0.000223538942482 0.0
1.19618359572 -0.042537701493 0.0
0.881388244334 0.0277608451522 0.0
0.844236098396 0.0750449747402 0.0
1.13018337702 -0.186663744022 0.0
1.31469302292 -0.103025715266 0.0
1.55475258941 0.200814336595 0.0
1.41469668573 -0.114746198221 0.0
1.2198690428 0.0607554790892 0.0
2.20207801926 -0.440061575868 0.0
2.21684098623 0.276611816264 0.0
0.89222270241 0.00389301754203 0.0
1.36215320897 0.181034102344 0.0
2.66859460133 0.178237033176 0.0
2.66264539152 -0.306608430712 0.0
2.74042133663 -0.0820101904299 0.0
2.57692618376 -0.281924099517 0.0
2.61237933751 0.128772126039 0.0
1.31609152425 0.0856525037758 0.0
1.21915860705 0.138705207184 0.0
3.08036043413 -0.136521993539 0.0
3.18090834048 0.014828161761 0.0
1.1142522771 -0.000973838415161 0.0
1.05925796626 -0.0384744953491 0.0
0.414101453496 0.138156389712 0.0
0.913138540448 -0.196709832202 0.0
0.25071411694 -0.0297576077005 0.0
0.854354944043 -0.00937727343578 0.0
0.880504187507 -0.0468310355019 0.0
1.27025428535 -0.202549013749 0.0
1.12858302167 0.0168371766378 0.0
1.00277875992 0.0545970291693 0.0
0.588787354006 0.0577747919853 0.0
3.03406007723 0.00547557869814 0.0
0.483773920845 0.0541644749003 0.0
0.94027194447 -0.0516163850314 0.0
0.913919389928 0.0153509441717 0.0
0.75500965363 0.0597027688838 0.0
0.764193323738 0.0032933519256 0.0
0.573357216797 0.0585816621679 0.0
1.1155819669 0.00236971027134 0.0
0.979292911479 0.26886738684 0.0
0.243921274679 -0.0040204363579 0.0
0.113263107509 0.0152556522562 0.0
1.18410798652 0.129624545964 0.0
1.24568065578 0.129578316196 0.0
1.25596036368 -0.0983306742696 0.0
0.772504757409 0.124895675317 0.0
0.996697095682 0.296871394178 0.0
1.11138550438 0.00407887081576 0.0
0.948832485808 0.171201498443 0.0
1.8489828761 0.246050710358 0.0
1.56843723404 -0.170760044806 0.0
1.10201419063 -0.00157047902458 0.0
0.751845311858 0.00115659629035 0.0
0.739577905711 -0.00869463188844 0.0
1.18046481892 0.0562684136573 0.0
1.13299108052 0.0676544814545 0.0
0.759748388949 -0.00169602038863 0.0
1.4170940377 0.356076782363 0.0
0.551227163728 0.105773864077 0.0
0.311060692978 0.0917589947339 0.0
1.6711856538 0.353142534938 0.0
2.14382607525 0.257514547561 0.0
1.89736887508 -0.476540840265 0.0
1.86179377738 -0.216597342006 0.0
0.608787804103 -0.190520338286 0.0
1.33643840375 0.133338765945 0.0
1.09669337388 0.0151648823389 0.0
0.104165218737 0.0840194718447 0.0
1.1169028753 -0.234815909847 0.0
1.07510630518 0.0484124562686 0.0
1.11098128113 -0.0136995526687 0.0
1.23064141421 -0.0573782753815 0.0
1.17805770013 -0.13515403832 0.0
1.10506116183 0.105770046723 0.0
0.902214021314 0.240509268164 0.0
1.17786807418 0.0522811630771 0.0
1.38300875315 -0.188778932743 0.0
1.2567378847 0.0756835998568 0.0
1.15618896248 -0.103768809153 0.0
0.000883490090336 -0.0717468371014 0.0
0.480202830399 -0.117465240204 0.0
0.656239842293 0.0116545987101 0.0
0.66741069681 0.00475193360933 0.0
1.93390734948 -0.16660706951 0.0
1.46716597711 0.254453379157 0.0
0.348474695624 -0.0331539086875 0.0
1.10325503727 -0.00274924021522 0.0
1.51055223532 -0.606110563619 0.0
0.795130366256 -0.0123436562774 0.0
1.06318221378 0.173624818477 0.0
1.10533561456 0.00077350170371 0.0
0.625509878895 0.0841713477731 0.0
0.719830404872 -0.011203570335 0.0
0.48741100135 -0.231289234627 0.0
0.680672869864 0.00915497810031 0.0
0.0400467614806 0.0798366757439 0.0
0.0790605141748 -0.00253324559767 0.0
0.120236161091 0.0325831277815 0.0
1.20172485095 0.084323331374 0.0
0.516718433771 -0.0427921138112 0.0
0.881054061092 -0.232366298434 0.0
1.15184991482 -0.0362828763505 0.0
1.18007549966 -0.0116134736977 0.0
1.78761568675 0.065730818939 0.0
2.31425422849 -0.025822364626 0.0
1.1127897907 0.0152384198614 0.0
1.2639255573 -0.151358513966 0.0
1.21557921024 0.252236701599 0.0
1.00699071069 0.149512847481 0.0
1.10484455935 -0.0666418044724 0.0
1.28069118644 -0.0945333082294 0.0
1.29940504183 0.154502176879 0.0
0.993452517066 0.0150189656134 0.0
1.10691417226 0.00884259787039 0.0
0.668249685883 0.0135706057081 0.0
0.540742847746 0.0523915419782 0.0
2.47602314806 0.205244555698 0.0
2.09286535778 -0.143282900609 0.0
1.47276015895 0.427854890277 0.0
1.06386537333 0.0041298316843 0.0
1.11920166054 0.0366814914146 0.0
2.73531831284 0.171807143093 0.0
2.29517513706 -0.172371957339 0.0
1.06338258027 -0.0445125132647 0.0
0.0392686647484 0.0151265897822 0.0
0.0207423987526 0.0325197372937 0.0
0.549435866611 0.0207677880034 0.0
1.48911055565 0.108662474084 0.0
1.38667765185 0.0762004697641 0.0
1.14767108992 0.12482297993 0.0
0.539286412704 -0.119880318067 0.0
0.404557502619 0.119492840664 0.0
1.37973078501 -0.0571690150677 0.0
0.982944639369 -0.106839109888 0.0
1.12506054342 0.040481439012 0.0
1.24311322576 -0.112562067744 0.0
1.06026689528 0.0279710658307 0.0
0.74490947867 -0.035528034665 0.0
0.0929690274383 0.00394852375308 0.0
1.30753022092 -0.0425579186501 0.0
0.703249777955 0.00725327080622 0.0
2.83811375053 -0.111317922921 0.0
1.35298630261 -0.12987841072 0.0
1.11540794784 -0.000136355077732 0.0
1.05500037754 -0.00514891946 0.0
1.44289527143 0.246465252724 0.0
1.11471953164 0.00101530066105 0.0
2.02570562047 -0.28782490843 0.0
1.59963898099 0.260287238067 0.0
0.682767959604 0.047889970815 0.0
1.32474282349 -0.239408807016 0.0
1.21428150321 0.112063265567 0.0
0.503422904855 0.181032005681 0.0
0.369641512597 -0.0559788770705 0.0
-0.0813334298064 -0.0209498621235 0.0
0.451513564471 0.0142655588299 0.0
0.520032718934 -0.0077774358489 0.0
0.611091269452 -0.0038855308883 0.0
1.51737539894 0.0197624618496 0.0
0.727587391712 0.0166007308319 0.0
0.338623004232 0.0490238411704 0.0
1.04956593645 0.123030796634 0.0
1.13015773877 0.0216752612572 0.0
0.403860649781 0.0518531630159 0.0
1.19486807764 -0.0761586637116 0.0
0.632185703322 0.158596402958 0.0
0.736482177806 -0.0539784405294 0.0
1.04374594763 0.129063745435 0.0
1.47771417278 -0.370173570751 0.0
0.649212014391 -0.0159210546352 0.0
1.12429610275 0.00794477217643 0.0
1.10633916298 -0.000504184681957 0.0
1.11809267898 0.00370150491631 0.0
1.11328968845 -0.000702377100399 0.0
1.45996512409 -0.174897491703 0.0
1.97062979487 0.203041535845 0.0
2.71149115863 -0.178437081933 0.0
1.0825735512 0.0284817627817 0.0
2.34727844017 0.109418486985 0.0
2.32857226058 -0.558754404804 0.0
1.16980163468 0.0243381338287 0.0
1.6638521087 0.279308934864 0.0
1.48820266157 -0.0977258648316 0.0
1.1156565045 0.000765467049918 0.0
2.61332851282 -0.315615811075 0.0
2.34610619818 0.0676840826589 0.0
0.523091138674 -0.0269381315827 0.0
1.10742978283 -0.00231907422541 0.0
1.22372337398 -0.0262902284643 0.0
1.11556059349 9.71636584601e-05 0.0
1.25568540787 -0.0329411543694 0.0
1.10754145391 0.0632998578984 0.0
1.14298245503 0.0150719899044 0.0
1.96433297656 0.126951614456 0.0
0.840613547146 -0.253440065128 0.0
1.09969147164 -0.144596816901 0.0
1.03852946558 0.0728397861356 0.0
1.28783031221 0.0505141142253 0.0
1.10689506493 0.408250927496 0.0
1.28214243827 -0.32757661271 0.0
1.01337507115 0.129489057002 0.0
1.02222409011 -0.00132141381594 0.0
0.598127633879 0.000413116606306 0.0
1.20139363955 0.0364253214549 0.0
2.85171988709 -0.0221137004462 0.0
1.71657618707 -0.226912406453 0.0
1.99332871939 0.279775895543 0.0
1.25046299329 0.0383793932679 0.0
0.993723223415 -0.0739319705267 0.0
1.06946632444 0.00132518887725 0.0
0.394627759384 0.0651282020437 0.0
0.536436594116 0.00353821809228 0.0
0.940387701396 0.0636286442579 0.0
1.24564525027 0.401351791706 0.0
0.535999729191 0.0013532645775 0.0
1.1819262998 0.0137532524095 0.0
0.606434809549 0.0157740728196 0.0
1.13342294749 -0.20006442848 0.0
0.887392866668 -0.0253655468297 0.0
2.33706183654 0.191890809632 0.0
0.986974469015 -0.228152176364 0.0
1.99394393296 -0.142958988025 0.0
1.04447170237 0.290455089373 0.0
1.07261826173 -0.00148733129732 0.0
1.15347654934 0.105473071289 0.0
3.1552814229 -0.0362651233177 0.0
3.14799741888 -0.000148802779444 0.0
1.23605033265 0.0681584561989 0.0
0.940443098621 0.0892123468915 0.0
1.68611797377 0.143248034904 0.0
0.887759352204 0.148305606398 0.0
1.17231185134 0.145359083225 0.0
0.436950975493 0.027281801883 0.0
1.23392624719 -0.0991610583728 0.0
2.88622127144 -0.0849715923239 0.0
3.20510038709 0.0569675726236 0.0
2.87082732933 0.155680137759 0.0
2.477359281 -0.205984922266 0.0
1.43297766248 -0.580006692701 0.0
0.828481786639 0.110347512479 0.0
1.09020549326 -0.179805797659 0.0
0.659737193862 0.000476807942351 0.0
1.47964357616 0.0650437095063 0.0
1.11341712114 0.00233298713714 0.0
0.185006772601 0.0337492392002 0.0
-0.117768085974 0.054527044149 0.0
1.73910436936 -0.208702540733 0.0
1.05873315047 -0.00140560609458 0.0
0.262890233043 -0.0991819136414 0.0
-0.132485778769 -0.100865822974 0.0
1.34122620161 0.0948396455879 0.0
1.55451723012 -0.219080238435 0.0
1.06082421239 0.191276990017 0.0
0.816295224552 -0.545093799557 0.0
1.80569362055 0.375077910073 0.0
1.14738287562 0.140563903068 0.0
1.15648080997 -0.0639473409179 0.0
1.24242753235 -0.0865845900775 0.0
0.505510006385 -0.0256347949603 0.0
1.03137947688 0.0308983527128 0.0
1.2932976389 0.20597966056 0.0
1.28401638258 -0.119337496642 0.0
0.360851047662 0.124792207402 0.0
0.928049724096 0.152417275487 0.0
1.11523978539 -0.000565215950085 0.0
1.16573592078 0.18626652994 0.0
1.34437797631 0.244836071027 0.0
1.31676301189 -0.141481713398 0.0
0.00241449438391 0.0107549314397 0.0
-0.0404068819372 -0.0339925277122 0.0
1.15954386265 0.0174696888597 0.0
0.504687593453 0.1468178085 0.0
1.25647185974 0.104632313122 0.0
0.960499842074 -0.00340747651937 0.0
0.0309798813631 -0.00429939836148 0.0
-0.0390851606985 0.0400675743015 0.0
1.68657284404 -0.377643179044 0.0
1.10765033737 0.130733132304 0.0
2.8124894787 -0.0583053230349 0.0
3.14198412572 0.0365336315005 0.0
1.11470800342 0.00498160783529 0.0
-0.0758248604011 -0.0281318819094 0.0
0.184326275403 -0.0259896085491 0.0
1.04352672825 0.209409466423 0.0
1.12127276821 -0.108264486315 0.0
0.411235374045 0.0314223154975 0.0
0.923599452683 -0.00573588829752 0.0
1.23067190215 0.0912067985309 0.0
1.97287532218 -0.297006216543 0.0
1.15702590173 0.0662776085616 0.0
2.07190648677 0.320514017892 0.0
1.21358244211 -0.1444448205 0.0
0.856536985777 0.0375976693732 0.0
0.964880434412 0.0051573391422 0.0
2.05198212297 -0.208610692821 0.0
2.08071251919 0.304279290967 0.0