# vtk DataFile Version 2.0
2D Simulation Python
ASCII
DATASET UNSTRUCTURED_GRID
FIELD FieldData 1
NODES 1 2 int
2757 5098

POINTS 2757 double
0.0 1.0 0.0
1.85 1.0 0.0
2.15 1.0 0.0
2.5312 0.9845000000000002 0.0
2.804 0.8597000000000001 0.0
3.1897 0.7164000000000001 0.0
3.4784 0.6349999999999998 0.0
3.8514 0.5613000000000001 0.0
4.1492 0.5257999999999998 0.0
4.5167 0.5049000000000001 0.0
4.8167 0.5003000000000002 0.0
5.1833 0.5003000000000002 0.0
5.4833 0.5049000000000001 0.0
5.8508 0.5257999999999998 0.0
6.1486 0.5613000000000001 0.0
6.5216 0.6349999999999998 0.0
6.8103 0.7164000000000001 0.0
7.196 0.8597000000000001 0.0
7.4688 0.9845000000000002 0.0
7.85 1.0 0.0
8.15 1.0 0.0
10.0 1.0 0.0
2.0 0.8500000000000001 0.0
2.604294 0.7837869999999998 0.0
3.292593 0.5288279999999999 0.0
3.982247 0.3922810000000001 0.0
4.6644 0.3515969999999999 0.0
5.3356 0.3515969999999999 0.0
6.017753 0.3922810000000001 0.0
6.707407 0.5288279999999999 0.0
7.395706 0.7837869999999998 0.0
8.0 0.8500000000000001 0.0
0.0 0.0 0.0
10.0 0.0 0.0
0.09589869952291516 1.0 0.0
0.1888147635033504 1.0 0.0
0.2788409054415558 1.0 0.0
0.3660670333996566 1.0 0.0
0.4505802302878947 1.0 0.0
0.5324648790931192 1.0 0.0
0.6118027156217198 1.0 0.0
0.6886729728356462 1.0 0.0
0.7631523848471844 1.0 0.0
0.8353153174851218 1.0 0.0
0.9052338217649879 1.0 0.0
0.9729776980408794 1.0 0.0
1.038614580849525 1.0 0.0
1.102210010843471 1.0 0.0
1.163827479442682 1.0 0.0
1.223528508355988 1.0 0.0
1.281372692526642 1.0 0.0
1.337417785230084 1.0 0.0
1.391719743967992 1.0 0.0
1.444332799787133 1.0 0.0
1.495309459666087 1.0 0.0
1.544700643890327 1.0 0.0
1.592555642113107 1.0 0.0
1.638922222094626 1.0 0.0
1.683846722920012 1.0 0.0
1.727373960837219 1.0 0.0
1.769547395111623 1.0 0.0
1.810409141995569 1.0 0.0
2.188119999999948 0.9984500000000022 0.0
2.226239999999895 0.9969000000000042 0.0
2.264359999999671 0.9953500000000134 0.0
2.302479999999619 0.9938000000000156 0.0
2.340599999999567 0.9922500000000177 0.0
2.378719999999689 0.9907000000000128 0.0
2.416839999999636 0.989150000000015 0.0
2.454959999999585 0.987600000000017 0.0
2.493079999999706 0.9860500000000121 0.0
2.839063636363584 0.8466727272727468 0.0
2.874127272727092 0.8336454545455219 0.0
2.909190909090677 0.8206181818182683 0.0
2.944254545454222 0.8075909090910295 0.0
2.97931818181763 0.7945636363638415 0.0
3.014381818181257 0.7815363636365724 0.0
3.049445454545112 0.7685090909092184 0.0
3.084509090908891 0.7554818181818926 0.0
3.119572727272518 0.7424545454546234 0.0
3.154636363636221 0.729427272727326 0.0
3.515699999999767 0.6276300000000459 0.0
3.552999999999703 0.6202600000000585 0.0
3.59029999999978 0.6128900000000433 0.0
3.627599999999699 0.6055200000000595 0.0
3.664899999999474 0.5981500000001038 0.0
3.702199999999584 0.5907800000000822 0.0
3.739499999999687 0.5834100000000619 0.0
3.776799999999796 0.5760400000000403 0.0
3.814099999999899 0.56867000000002 0.0
4.185950000000035 0.5237099999999979 0.0
4.22269999999962 0.5216200000000215 0.0
4.259449999999689 0.5195300000000176 0.0
4.296199999999274 0.5174400000000412 0.0
4.332949999999307 0.5153500000000395 0.0
4.369699999999686 0.5132600000000178 0.0
4.406449999999271 0.5111700000000414 0.0
4.443200000000032 0.5090799999999982 0.0
4.47994999999962 0.5069900000000217 0.0
4.85335999999993 0.5003000000000002 0.0
4.890019999999688 0.5003000000000002 0.0
4.926679999999445 0.5003000000000002 0.0
4.963339999999202 0.5003000000000002 0.0
4.99999999999948 0.5003000000000002 0.0
5.036659999999757 0.5003000000000002 0.0
5.073319999999861 0.5003000000000002 0.0
5.109979999999966 0.5003000000000002 0.0
5.14664000000007 0.5003000000000002 0.0
5.520050000000034 0.506990000000002 0.0
5.556799999999619 0.5090799999999784 0.0
5.593549999999689 0.5111699999999824 0.0
5.630299999999274 0.5132599999999587 0.0
5.667049999999306 0.5153499999999605 0.0
5.703799999999686 0.5174399999999821 0.0
5.740549999999271 0.5195299999999585 0.0
5.777300000000031 0.5216200000000017 0.0
5.814049999999619 0.5237099999999782 0.0
6.185899999999967 0.5686699999999937 0.0
6.223200000000103 0.5760400000000205 0.0
6.26049999999988 0.5834099999999763 0.0
6.297799999999683 0.5907799999999372 0.0
6.335099999999809 0.5981499999999621 0.0
6.372399999999617 0.6055199999999242 0.0
6.409700000000087 0.6128900000000171 0.0
6.446999999999897 0.6202599999999795 0.0
6.484300000000033 0.6276300000000062 0.0
6.845363636363626 0.7294272727272689 0.0
6.880427272727252 0.7424545454545377 0.0
6.915490909090877 0.7554818181818067 0.0
6.950554545454437 0.7685090909090506 0.0
6.985618181818142 0.7815363636363493 0.0
7.020681818181658 0.7945636363635772 0.0
7.055745454545396 0.8075909090908875 0.0
7.090809090908994 0.8206181818181463 0.0
7.125872727272663 0.8336454545454308 0.0
7.160936363636331 0.8466727272727155 0.0
7.50692 0.9860500000000001 0.0
7.545039999999653 0.987599999999986 0.0
7.583159999999308 0.989149999999972 0.0
7.621279999999653 0.990699999999986 0.0
7.659399999999653 0.992249999999986 0.0
7.697519999999654 0.993799999999986 0.0
7.735639999999999 0.9953500000000001 0.0
7.773759999999654 0.9968999999999859 0.0
7.811879999999999 0.99845 0.0
8.189361702128089 1.0 0.0
8.228723404256021 1.0 0.0
8.268085106383511 1.0 0.0
8.307446808511347 1.0 0.0
8.346808510638837 1.0 0.0
8.386170212766556 1.0 0.0
8.425531914894163 1.0 0.0
8.464893617021728 1.0 0.0
8.504255319149491 1.0 0.0
8.543617021276981 1.0 0.0
8.582978723404818 1.0 0.0
8.622340425532308 1.0 0.0
8.661702127660144 1.0 0.0
8.701063829787634 1.0 0.0
8.740425531915472 1.0 0.0
8.779787234042962 1.0 0.0
8.819148936170695 1.0 0.0
8.858510638298288 1.0 0.0
8.897872340425867 1.0 0.0
8.937234042553614 1.0 0.0
8.976595744681104 1.0 0.0
9.01595744680894 1.0 0.0
9.05531914893643 1.0 0.0
9.094680851064266 1.0 0.0
9.134042553191756 1.0 0.0
9.173404255319593 1.0 0.0
9.212765957447777 1.0 0.0
9.252127659575525 1.0 0.0
9.291489361703103 1.0 0.0
9.330851063830696 1.0 0.0
9.37021276595843 1.0 0.0
9.40957446808592 1.0 0.0
9.448936170213758 1.0 0.0
9.488297872341246 1.0 0.0
9.527659574469084 1.0 0.0
9.567021276596574 1.0 0.0
9.60638297872441 1.0 0.0
9.6457446808519 1.0 0.0
9.685106382979662 1.0 0.0
9.724468085107226 1.0 0.0
9.763829787234833 1.0 0.0
9.803191489362552 1.0 0.0
9.842553191490042 1.0 0.0
9.881914893617878 1.0 0.0
9.921276595745368 1.0 0.0
9.960638297872762 1.0 0.0
1.85511112605661 0.9611771432347338 0.0
1.87009618943224 0.9250000000001632 0.0
1.89393398282189 0.8939339828221454 0.0
1.924999999999842 0.8700961894324258 0.0
1.96117714323457 0.8551111260566537 0.0
2.51911222351653 0.9468943483281596 0.0
2.517261556501524 0.9074371004566797 0.0
2.525776366502026 0.8688651237292935 0.0
2.544066041990905 0.8338538805560812 0.0
2.570861958867948 0.8048318507040559 0.0
3.183399471121889 0.6773269167743563 0.0
3.187540640753236 0.6379663627768488 0.0
3.201835045303677 0.6010600964327384 0.0
3.225286972057683 0.569178916585472 0.0
3.256262818048977 0.5445435870349058 0.0
3.851311808445927 0.5217631357369752 0.0
3.861560068046178 0.4835774762734121 0.0
3.881432344049533 0.449397598275363 0.0
3.909547162863183 0.4215996059626037 0.0
3.94395004882614 0.4021159499676259 0.0
4.520996695771619 0.4658028333951991 0.0
4.53530678067777 0.4291658097571295 0.0
4.558646801051933 0.3975067908214496 0.0
4.589412725279813 0.3730015273561684 0.0
4.625490180094372 0.3573341317450809 0.0
5.188792203110742 0.4613608817416055 0.0
5.204215644069836 0.4251871800409458 0.0
5.228510353354086 0.3942649174043062 0.0
5.260006687237601 0.3707192133874752 0.0
5.296540073359643 0.3561682366420743 0.0
5.860011021539801 0.4873401270919612 0.0
5.878953813569356 0.4526244912484382 0.0
5.906311508814615 0.4240664581795365 0.0
5.94018225175748 0.4036513286316637 0.0
5.978211412052326 0.3927983240146977 0.0
6.536647498529492 0.5983695458969855 0.0
6.560754133038625 0.5669515963705687 0.0
6.592240694919373 0.5429346481718567 0.0
6.628913908052386 0.5279916625832858 0.0
6.668219207005813 0.523163531066366 0.0
7.216556713460987 0.8259527451430548 0.0
7.245211027874307 0.7987427112527251 0.0
7.279975409646859 0.7799572530799906 0.0
7.318438515914653 0.7708993761205898 0.0
7.357932451203028 0.7721973569569427 0.0
7.855111126056608 0.9611771432347389 0.0
7.87009618943239 0.9249999999999031 0.0
7.893933982821849 0.893933982822186 0.0
7.924999999999724 0.870096189432493 0.0
7.961177143234544 0.8551111260566602 0.0
2.038822856765458 0.8551111260566613 0.0
2.074999999999886 0.8700961894322686 0.0
2.106066017177859 0.8939339828218953 0.0
2.129903810567719 0.9250000000000924 0.0
2.144888873943354 0.9611771432345996 0.0
2.642072213105018 0.7722253821844589 0.0
2.68155866996913 0.7709276471286509 0.0
2.720014493007171 0.7799838089221203 0.0
2.754772291926727 0.7987657099507169 0.0
2.783421180466018 0.8259705914503371 0.0
3.331781228837649 0.5232065749202437 0.0
3.371075251522289 0.5280333212977997 0.0
3.407737943504146 0.5429720199040406 0.0
3.439215472227839 0.5669820778975886 0.0
3.463315190802363 0.5983910139513634 0.0
4.021785797379926 0.3928173305182819 0.0
4.059810087100174 0.4036689451393993 0.0
4.093676492056691 0.424081460024671 0.0
4.121030683473297 0.4526358355315954 0.0
4.139971049410406 0.4873470251801275 0.0
4.703463602180634 0.3561536952559329 0.0
4.740000641190358 0.3707061269192393 0.0
4.771500124319702 0.3942541852163063 0.0
4.795797262775971 0.4251795396981159 0.0
4.811222245889969 0.4613568583244396 0.0
5.37450551763444 0.3573491929815369 0.0
5.410579205991976 0.3730149529290054 0.0
5.44134191828321 0.3975176580649515 0.0
5.464679501979187 0.429173371825681 0.0
5.478988092924676 0.4658065705894096 0.0
6.056057512867302 0.4020971861494807 0.0
6.090465040120479 0.4215834706823507 0.0
6.118583651902696 0.4493852132201999 0.0
6.138458608873377 0.4835697024226929 0.0
6.14870825106575 0.521760513510746 0.0
6.743759676449819 0.5445060199603367 0.0
6.774744567243897 0.569148542912274 0.0
6.798203341851458 0.6010390319154575 0.0
6.812501920301792 0.6379560747176215 0.0
6.816644299135661 0.6773281218144781 0.0
[...]
POINT_DATA 2757
VECTORS vector double
0.0 0.0 0.0
0.0 0.0 0.0
0.0 0.0 0.0
0.0 0.0 0.0
0.0 0.0 0.0
0.0 0.0 0.0
0.0 0.0 0.0
0.0 0.0 0.0
0.0 0.0 0.0
0.0 0.0 0.0
0.0 0.0 0.0
0.0 0.0 0.0
0.0 0.0 0.0
0.0 0.0 0.0
0.0 0.0 0.0
0.0 0.0 0.0
0.0 0.0 0.0
0.0 0.0 0.0
0.0 0.0 0.0
0.0 0.0 0.0
0.0 0.0 0.0
0.0 0.0 0.0
0.0 0.0 0.0
0.0 0.0 0.0
0.0 0.0 0.0
0.0 0.0 0.0
0.0 0.0 0.0
0.0 0.0 0.0
0.0 0.0 0.0
0.0 0.0 0.0
0.0 0.0 0.0
0.0 0.0 0.0
1.5 -0.00941235780445 0.0
1.05358251973 -3.42364764273e-06 0.0
0.0 0.0 0.0
0.0 0.0 0.0
0.0 0.0 0.0
0.0 0.0 0.0
0.0 0.0 0.0
0.0 0.0 0.0
0.0 0.0 0.0
0.0 0.0 0.0
0.0 0.0 0.0
0.0 0.0 0.0
0.0 0.0 0.0
0.0 0.0 0.0
0.0 0.0 0.0
0.0 0.0 0.0
0.0 0.0 0.0
0.0 0.0 0.0
0.0 0.0 0.0
0.0 0.0 0.0
0.0 0.0 0.0
0.0 0.0 0.0
0.0 0.0 0.0
0.0 0.0 0.0
0.0 0.0 0.0
0.0 0.0 0.0
0.0 0.0 0.0
0.0 0.0 0.0
0.0 0.0 0.0
0.0 0.0 0.0
0.0 0.0 0.0
0.0 0.0 0.0
0.0 0.0 0.0
0.0 0.0 0.0
0.0 0.0 0.0
0.0 0.0 0.0
0.0 0.0 0.0
0.0 0.0 0.0
0.0 0.0 0.0
0.0 0.0 0.0
0.0 0.0 0.0
0.0 0.0 0.0
0.0 0.0 0.0
0.0 0.0 0.0
0.0 0.0 0.0
0.0 0.0 0.0
0.0 0.0 0.0
0.0 0.0 0.0
0.0 0.0 0.0
0.0 0.0 0.0
0.0 0.0 0.0
0.0 0.0 0.0
0.0 0.0 0.0
0.0 0.0 0.0
0.0 0.0 0.0
0.0 0.0 0.0
0.0 0.0 0.0
0.0 0.0 0.0
0.0 0.0 0.0
0.0 0.0 0.0
0.0 0.0 0.0
0.0 0.0 0.0
0.0 0.0 0.0
0.0 0.0 0.0
0.0 0.0 0.0
0.0 0.0 0.0
0.0 0.0 0.0
0.0 0.0 0.0
0.0 0.0 0.0
0.0 0.0 0.0
0.0 0.0 0.0
0.0 0.0 0.0
0.0 0.0 0.0
0.0 0.0 0.0
0.0 0.0 0.0
0.0 0.0 0.0
0.0 0.0 0.0
0.0 0.0 0.0
0.0 0.0 0.0
0.0 0.0 0.0
0.0 0.0 0.0
0.0 0.0 0.0
0.0 0.0 0.0
0.0 0.0 0.0
0.0 0.0 0.0
0.0 0.0 0.0
0.0 0.0 0.0
0.0 0.0 0.0
0.0 0.0 0.0
0.0 0.0 0.0
0.0 0.0 0.0
0.0 0.0 0.0
0.0 0.0 0.0
0.0 0.0 0.0
0.0 0.0 0.0
0.0 0.0 0.0
0.0 0.0 0.0
0.0 0.0 0.0
0.0 0.0 0.0
0.0 0.0 0.0
0.0 0.0 0.0
0.0 0.0 0.0
0.0 0.0 0.0
0.0 0.0 0.0
0.0 0.0 0.0
0.0 0.0 0.0
0.0 0.0 0.0
0.0 0.0 0.0
0.0 0.0 0.0
0.0 0.0 0.0
0.0 0.0 0.0
0.0 0.0 0.0
0.0 0.0 0.0
0.0 0.0 0.0
0.0 0.0 0.0
0.0 0.0 0.0
0.0 0.0 0.0
0.0 0.0 0.0
0.0 0.0 0.0
0.0 0.0 0.0
0.0 0.0 0.0
0.0 0.0 0.0
0.0 0.0 0.0
0.0 0.0 0.0
0.0 0.0 0.0
0.0 0.0 0.0
0.0 0.0 0.0
0.0 0.0 0.0
0.0 0.0 0.0
0.0 0.0 0.0
0.0 0.0 0.0
0.0 0.0 0.0
0.0 0.0 0.0
0.0 0.0 0.0
0.0 0.0 0.0
0.0 0.0 0.0
0.0 0.0 0.0
0.0 0.0 0.0
0.0 0.0 0.0
0.0 0.0 0.0
0.0 0.0 0.0
0.0 0.0 0.0
0.0 0.0 0.0
0.0 0.0 0.0
0.0 0.0 0.0
0.0 0.0 0.0
0.0 0.0 0.0
0.0 0.0 0.0
0.0 0.0 0.0
0.0 0.0 0.0
0.0 0.0 0.0
0.0 0.0 0.0
0.0 0.0 0.0
0.0 0.0 0.0
0.0 0.0 0.0
0.0 0.0 0.0
0.0 0.0 0.0
0.0 0.0 0.0
0.0 0.0 0.0
0.0 0.0 0.0
0.0 0.0 0.0
0.0 0.0 0.0
0.0 0.0 0.0
0.0 0.0 0.0
0.0 0.0 0.0
0.0 0.0 0.0
0.0 0.0 0.0
0.0 0.0 0.0
0.0 0.0 0.0
0.0 0.0 0.0
0.0 0.0 0.0
0.0 0.0 0.0
0.0 0.0 0.0
0.0 0.0 0.0
0.0 0.0 0.0
0.0 0.0 0.0
0.0 0.0 0.0
0.0 0.0 0.0
0.0 0.0 0.0
0.0 0.0 0.0
0.0 0.0 0.0
0.0 0.0 0.0
0.0 0.0 0.0
0.0 0.0 0.0
0.0 0.0 0.0
0.0 0.0 0.0
0.0 0.0 0.0
0.0 0.0 0.0
0.0 0.0 0.0
0.0 0.0 0.0
0.0 0.0 0.0
0.0 0.0 0.0
0.0 0.0 0.0
0.0 0.0 0.0
0.0 0.0 0.0
0.0 0.0 0.0
0.0 0.0 0.0
0.0 0.0 0.0
0.0 0.0 0.0
0.0 0.0 0.0
0.0 0.0 0.0
0.0 0.0 0.0
0.0 0.0 0.0
0.0 0.0 0.0
0.0 0.0 0.0
0.0 0.0 0.0
0.0 0.0 0.0
0.0 0.0 0.0
0.0 0.0 0.0
0.0 0.0 0.0
0.0 0.0 0.0
0.0 0.0 0.0
0.0 0.0 0.0
0.0 0.0 0.0
0.0 0.0 0.0
0.0 0.0 0.0
0.0 0.0 0.0
0.0 0.0 0.0
0.0 0.0 0.0
0.0 0.0 0.0
0.0 0.0 0.0
0.0 0.0 0.0
0.0 0.0 0.0
0.0 0.0 0.0
0.0 0.0 0.0
0.0 0.0 0.0
0.0 0.0 0.0
0.0 0.0 0.0
0.0 0.0 0.0
0.0 0.0 0.0
0.0 0.0 0.0
0.0 0.0 0.0
0.0 0.0 0.0
0.0 0.0 0.0
0.0 0.0 0.0
0.0 0.0 0.0
0.0 0.0 0.0
0.0 0.0 0.0
0.0 0.0 0.0
0.0 0.0 0.0
0.0 0.0 0.0
0.0 0.0 0.0
0.0 0.0 0.0
0.0 0.0 0.0
0.0 0.0 0.0
0.0 0.0 0.0
0.0 0.0 0.0
0.0 0.0 0.0
0.0 0.0 0.0
0.0 0.0 0.0
0.0 0.0 0.0
0.0 0.0 0.0
0.0 0.0 0.0
0.0 0.0 0.0
0.0 0.0 0.0
0.0 0.0 0.0
0.0 0.0 0.0
0.0 0.0 0.0
0.0 0.0 0.0
1.15871101047 -0.00225404745159 0.0
1.15788393932 0.00406688571175 0.0
1.13384637635 -0.00240077434645 0.0
1.09818935109 0.00284574027121 0.0
1.08228652509 -0.00471002175364 0.0
1.07159960146 0.00196177718433 0.0
1.06199456807 -0.000472954353478 0.0
1.05886183771 -2.1850145517e-05 0.0
1.05628384486 0.000151350694702 0.0
1.05621018652 -6.87195126977e-05 0.0
1.05911312853 -0.000186744926369 0.0
1.06537828487 0.00075840522046 0.0
1.07222175326 -0.000463792446398 0.0
1.08027145593 0.000803902085359 0.0
1.09352254731 0.00159312434917 0.0
1.10420219158 -0.000337258808926 0.0
1.11904279874 0.000627493140118 0.0
1.13766850347 -0.00156372357633 0.0
1.15800599673 0.000638563477186 0.0
1.17358007303 0.000885549917128 0.0
1.19416596088 -0.0023000682885 0.0
1.21964091067 0.00225080026151 0.0
1.23838576542 0.000418889936903 0.0
1.271402861 -0.00358920177988 0.0
1.31199264816 0.000341471498174 0.0
1.34445591708 0.0027549177848 0.0
1.39426213682 0.00691582273084 0.0
1.44851308641 -0.00764003619055 0.0
1.52823738731 0.00635499141304 0.0
1.6086801231 -0.00785553782034 0.0
1.71401744137 -0.00763627872677 0.0
1.80038045066 0.00608198633553 0.0
1.86958554622 0.00480829088797 0.0
1.93105449477 -0.00630411969793 0.0
2.00324117014 -0.00396868092863 0.0
2.07823097364 0.00394236676929 0.0
2.18064940464 0.00554938146543 0.0
2.29759191869 -0.00472350663611 0.0
2.43399006609 0.00131592829657 0.0
2.52072286843 0.00123702084469 0.0
2.53860388824 0.00413731415886 0.0
2.51466442912 -0.000763063252714 0.0
2.51739696368 -0.000580027200936 0.0
2.59063803449 0.00971981885525 0.0
2.68330892208 -0.00102390484024 0.0
2.80590643436 -0.00977166069605 0.0
2.83918570195 -0.000153642785101 0.0
2.76272430521 0.00282145118973 0.0
2.66705279623 0.00833572712018 0.0
2.62848625718 -0.0107598409476 0.0
2.68032557843 -0.00446813182457 0.0
2.78012149468 -0.00159629195778 0.0
2.83654403605 -0.000759952410493 0.0
2.7987520935 0.0082323203162 0.0
2.67700036055 0.00196825761417 0.0
2.58523954288 -0.00969937418848 0.0
2.51445665991 0.000503183650865 0.0
2.51319736685 0.00079544446112 0.0
2.53777756533 -0.00418567154178 0.0
2.52051724629 -0.00124461990676 0.0
2.43394796312 -0.00130454721344 0.0
2.29774835377 0.00472049863642 0.0
2.18104224244 -0.00555257839759 0.0
2.07887008178 -0.00392853307138 0.0
2.00417837711 0.00394550357327 0.0
1.93232325579 0.00630824274159 0.0
1.87112626986 -0.00482666217628 0.0
1.80223260398 -0.00600775466111 0.0
1.714486578 0.00824124269665 0.0
1.61043245692 0.00430017652065 0.0
1.51013933024 0.0127145488926 0.0
1.4524638594 -0.02430431631 0.0
1.40257744897 0.0132967855556 0.0
1.33628488458 -0.0021022066916 0.0
1.31158066071 -0.003689087473 0.0
1.27090555836 0.00215182569807 0.0
1.23983387461 -7.21677651429e-05 0.0
1.22317285663 -0.00215220807084 0.0
1.19911208036 0.00240538221532 0.0
1.17838328849 -0.00058196471751 0.0
1.16142566404 0.000539739284142 0.0
1.14619314295 -0.00143876516465 0.0
1.12804277934 -0.00119276180956 0.0
1.11665777335 0.000313514541775 0.0
1.10330437824 -0.000424240817312 0.0
1.09046771687 9.92532102986e-05 0.0
1.08348722819 -0.000556150021495 0.0
1.07624380244 0.000186970219078 0.0
1.07142237516 -0.000531549669808 0.0
1.06598927233 0.000376993801581 0.0
1.0624658147 -0.000122374302857 0.0
1.06022718389 -3.75146209761e-05 0.0
1.05846903146 0.000115661040333 0.0
1.05691421173 -7.33577169128e-05 0.0
1.05597157226 -7.55198311352e-05 0.0
1.05533009974 5.08978614782e-05 0.0
1.05475099395 -7.56468436529e-05 0.0
1.05412975307 3.21405886684e-05 0.0
1.05368170571 -5.62723440232e-06 0.0
1.485 0.00186619486655 0.0
1.44 0.00887750094975 0.0
1.365 0.0135196391227 0.0
1.26 0.0223057383659 0.0
1.125 0.0393845698213 0.0
0.960000000002 0.0213806092743 0.0
0.765000000002 0.00398312602371 0.0
0.540000000001 0.00883419979422 0.0
0.285000000001 -0.0526970217364 0.0
1.05352747026 5.39821286182e-05 0.0
1.05336542673 6.68790097706e-05 0.0
1.05299183448 0.000161978834641 0.0
1.0527393152 0.000270048682819 0.0
1.05200843516 0.000273866140228 0.0
1.05113072357 0.000305615067918 0.0
1.04981119309 0.000300903395553 0.0
1.04835664511 0.000737093549626 0.0
1.04537458241 0.000931592439794 0.0
1.04076183276 0.00258326007261 0.0
1.03465653777 0.00517462031503 0.0
1.00941630329 0.00706958795624 0.0
0.999577459615 0.0255819485555 0.0
0.918712657842 0.0398843629524 0.0
0.595706017117 0.155848898092 0.0
1.08142281078 0.0784015058181 0.0
1.05394098971 0.00366822405005 0.0
1.05288987328 0.0187220178423 0.0
1.33188911466 -0.282837975342 0.0
1.31944744432 0.29287322317 0.0
1.06295759348 -0.112000623595 0.0
1.13026086147 -0.115905018087 0.0
1.13254067492 0.106941728452 0.0
1.03251021626 -0.0213973366783 0.0
1.80934259027 -0.177202582295 0.0
1.80941389789 0.176349481691 0.0
1.18356350491 0.0891846309047 0.0
1.05197716594 0.00510803505513 0.0
1.18464005584 -0.0978940385416 0.0
2.2282296759 -0.043767710426 0.0
2.22703367081 0.0408833662195 0.0
1.02622237763 0.029038853689 0.0
2.29936640147 0.0906264635684 0.0
1.02958175254 0.0385630298422 0.0
0.996993084767 0.190968647665 0.0
1.05528949799 0.00654097950349 0.0
1.27873679747 -0.210747322673 0.0
1.26867776617 0.208654998532 0.0
1.05229958901 0.00480747114286 0.0
0.956520582637 -0.205863617903 0.0
1.60534453807 -0.471678224634 0.0
1.6362101035 0.508305941829 0.0
1.04055305822 0.0102706075872 0.0
1.01030615165 -0.0524262758481 0.0
0.762527790516 -0.0238922541515 0.0
0.763041347285 0.00427770212197 0.0
1.16785486785 0.0632480117088 0.0
1.16872344637 -0.0672256695714 0.0
2.02986385195 0.0793188825662 0.0
2.02847343224 -0.080415459084 0.0
1.05846626804 0.00642580658297 0.0
0.983875941973 0.0581548206481 0.0
1.09584279123 -0.162116794385 0.0
1.10363348013 -0.543346700343 0.0
1.09480102644 0.486589410741 0.0
1.14878341698 0.134281889653 0.0
2.65413367651 -0.136673478014 0.0
2.65419642047 0.137113098509 0.0
1.19164292056 -0.0587576443369 0.0
1.19841914511 0.055115256875 0.0
1.07497245734 0.0269100499784 0.0
1.00643835607 -0.356204285905 0.0
1.01951870518 0.329463606396 0.0
1.06673353501 -0.0370395058094 0.0
1.01293356006 -0.00640935911209 0.0
1.31091705056 0.12631331402 0.0
1.04756922711 -0.00395447827004 0.0
1.04895680205 0.00411715412614 0.0
1.05382057679 0.00151545607229 0.0
1.12724611836 -0.0529239133132 0.0
1.02725144663 0.0138798034836 0.0
0.991422589712 0.097010301401 0.0
1.22274981572 -0.226702139137 0.0
1.23129573704 -0.109047722719 0.0
1.33919602679 0.117910701867 0.0
1.3407096708 -0.118312913147 0.0
1.13830526492 0.0500987799799 0.0
2.07277826042 -0.629837368371 0.0
2.07284121848 0.629401776337 0.0
1.04053689356 -0.00270484815252 0.0
1.23159949433 0.106021753175 0.0
2.71835031914 0.392156096656 0.0
2.71836631456 -0.392753099713 0.0
2.57543006849 -0.417583515943 0.0
2.41503489043 -0.557012635611 0.0
2.48638287554 0.552344670168 0.0
1.0665839421 0.0528154610293 0.0
1.04614172084 0.00120042280637 0.0
3.07780230642 -0.151469407674 0.0
2.9959551445 0.199305147184 0.0
1.05257699517 0.00301836965133 0.0
1.38228348529 0.0915864759288 0.0
1.3810933224 -0.0926391340117 0.0
1.29956853406 -0.525744986946 0.0
1.2990907969 0.525266325759 0.0
1.04529411652 0.0218284606856 0.0
0.970003749215 -0.0787008831625 0.0
1.33969586647 -0.148532960467 0.0
1.0660218003 0.0115904638939 0.0
1.60544095374 0.312069250886 0.0
1.60757956491 -0.311898888985 0.0
2.8716891836 0.376112169381 0.0
1.58490495653 0.431724455516 0.0
1.58110363882 -0.431292848851 0.0
1.00584610699 -0.0274068428708 0.0
0.9951084858 0.0193054672274 0.0
1.64656835464 -0.393078140183 0.0
1.56689935959 0.407400189744 0.0
1.05621732797 0.00295002396991 0.0
1.36456892401 0.163494797046 0.0
0.539685772733 -0.245995625107 0.0
0.524843319459 0.225296307755 0.0
1.13227644691 0.160420064764 0.0
1.18182343966 0.0589642092817 0.0
1.17703887122 -0.0634099279355 0.0
0.995541836013 0.0130516220812 0.0
1.37098262907 0.852592545128 0.0
1.05493726061 0.00524137910743 0.0
1.09138657411 0.358350653958 0.0
1.52226567819 0.190170087352 0.0
1.49505191745 -0.181585150082 0.0
1.05372772143 0.00342467110571 0.0
1.02460425497 0.0143949378654 0.0
1.04314707942 0.0031241615535 0.0
1.05387338643 -0.011821720882 0.0
1.05936730184 0.0451885658299 0.0
1.01878286372 0.0022307821684 0.0
1.30853183272 0.183462454212 0.0
0.892191800574 0.0919877110858 0.0
0.70494553683 0.240912638726 0.0
2.03241738901 0.590361589876 0.0
1.83405740313 0.209452973578 0.0
2.02934582251 -0.564682546495 0.0
1.83139304681 -0.210053155519 0.0
0.900037520251 -0.357204040516 0.0
1.05375403253 0.0177204392361 0.0
1.05028179974 0.0103340686049 0.0
0.90022240751 0.271967045378 0.0
1.35558061076 -0.336634873673 0.0
1.0420361445 0.0226005475717 0.0
1.04523295753 -0.0572922660101 0.0
1.16377821984 -0.0564261878592 0.0
1.31579740822 -0.0587689873632 0.0
1.03403806494 0.0749092691216 0.0
1.28549153136 0.398201759738 0.0
1.09988734584 0.0434751606982 0.0
1.32098335523 -0.179968209098 0.0
1.17066955335 0.0522965652105 0.0
1.11842459331 -0.132487264746 0.0
0.706260132353 0.507280350789 0.0
0.722492696321 -0.30666202846 0.0
1.0303363964 -0.280002019447 0.0
0.976380670673 0.275937875676 0.0
2.02746056671 0.17882280844 0.0
2.02999566604 -0.181294937229 0.0
0.722721303425 0.0194185316012 0.0
1.04979637943 0.00529446744864 0.0
1.51722306732 -0.813661052298 0.0
0.997079557323 -0.03462000506 0.0
1.02782936053 0.00415484963493 0.0
1.05367081485 0.00480309714554 0.0
0.972348132461 0.0342560692309 0.0
1.0060949998 0.0051243102462 0.0
0.710436388697 -0.484713586286 0.0
0.975274539553 0.0182193431652 0.0
0.779857592664 0.013949131863 0.0
0.507371913684 0.127758702408 0.0
0.489611027111 -0.142591435811 0.0
1.12466702237 0.0776869322588 0.0
0.832607347115 -0.109144709433 0.0
1.12074296103 -0.409219667539 0.0
1.08360188086 -0.0636364608677 0.0
1.09422590754 -0.0285102672372 0.0
2.53643033506 -0.579060455502 0.0
2.53513282762 0.578220226096 0.0
1.0564531041 0.0105130297977 0.0
1.18357887057 -0.202204176505 0.0
1.16418966867 0.197104699232 0.0
1.03598763374 0.014019522906 0.0
1.02861475273 -0.0343508265544 0.0
1.19097152377 -0.0907447313095 0.0
1.1941327023 0.0851073395732 0.0
1.38464449757 -0.035870112889 0.0
1.05374324337 0.00752194518246 0.0
0.983816135033 -0.00538643250951 0.0
0.932789859913 0.0224207770724 0.0
1.96231638661 0.0856890095724 0.0
1.96125606115 -0.0862872684037 0.0
1.35045438396 0.460813955981 0.0
1.04742564747 0.00506907004272 0.0
1.09189817725 0.10872998059 0.0
2.10324249314 0.190088545215 0.0
2.10301420822 -0.190442308801 0.0
1.01781257227 -0.0845437439516 0.0
0.465351149692 -0.0320001173079 0.0
0.457647518598 0.0239727475551 0.0
0.92893693013 -0.00551543068052 0.0
1.29999124092 0.0645616780414 0.0
1.24079544389 0.0445431652287 0.0
1.06342910808 0.131917743694 0.0
0.764635316362 -0.48549083779 0.0
0.822458533924 0.519548151284 0.0
1.30304118905 -0.0603434592288 0.0
1.25824264355 0.0483673798827 0.0
1.06080322781 0.0258251713607 0.0
1.20505048452 -0.062324362971 0.0
1.02273977699 -0.0322702499851 0.0
1.24993875179 -0.190662285577 0.0
1.24923484892 0.190099359979 0.0
1.22912165817 -0.0438332171497 0.0
1.00848164721 -0.0133535077559 0.0
3.09920037492 -0.340871226847 0.0
1.28191193258 -0.138923387071 0.0
1.05267257764 0.00125572056099 0.0
1.04520873145 0.00991736829024 0.0
1.286639922 0.142005848522 0.0
1.05461507535 0.00271818563228 0.0
2.21616655423 -0.150748768396 0.0
2.21168567593 0.165816098625 0.0
1.00312203974 -0.00787129304868 0.0
1.26688154578 -0.194967766175 0.0
1.21932765845 0.0495628818665 0.0
1.27317898751 -0.0352741557733 0.0
0.780661409043 -0.170871669047 0.0
0.760066831318 0.363492231725 0.0
0.856019095999 0.108963178656 0.0
0.96321121723 0.0153814344235 0.0
0.974438058787 -0.0208671093079 0.0
1.16777635167 0.0564547749 0.0
1.55320581611 -0.0752406130014 0.0
1.55539797487 0.0745352494886 0.0
1.03038938843 0.0560395343618 0.0
1.04938476755 -0.0341796176466 0.0
1.53707046705 -0.00990788058799 0.0
1.14146002569 -0.0848823386183 0.0
0.836324829545 0.223396048221 0.0
0.843667362504 -0.242137337703 0.0
1.00826117757 0.105509811497 0.0
1.38388857509 -0.417935645143 0.0
0.950510890489 -0.035549523938 0.0
1.06305335742 0.00564611608079 0.0
1.05352739705 0.00398435491334 0.0
1.05853096783 0.0032490050743 0.0
1.05353101238 0.00324778289904 0.0
1.38258933852 -0.174742654452 0.0
2.53196270492 0.879407115246 0.0
3.08056221704 -0.102129720118 0.0
1.04580365311 0.0154777449773 0.0
3.08051811161 0.101817135785 0.0
2.53166212633 -0.879996794525 0.0
1.09455030043 0.0199907120903 0.0
1.3950344599 0.1771875026 0.0
1.41444044233 -0.101325079196 0.0
1.05517144846 0.00142960790867 0.0
3.02609701765 -0.71109687031 0.0
2.94992511311 0.754082457336 0.0
0.964021400825 0.0356732695006 0.0
1.05343734601 0.00416347777316 0.0
1.1498261998 -0.0292862862964 0.0
1.05352798305 0.00069551530336 0.0
1.18134762307 -0.0323024814857 0.0
1.0472657645 0.0344960341654 0.0
1.07559830051 0.0112017914198 0.0
2.3481495235 0.85830422428 0.0
1.15616468057 -0.566423747948 0.0
1.10202991275 -0.20663899237 0.0
1.02086622901 -0.0178450142968 0.0
1.1858758554 0.032005764435 0.0
1.19134783815 0.326073346601 0.0
1.20361780941 -0.343949001424 0.0
1.29719239813 0.311906318769 0.0
1.05173870718 0.00205749492671 0.0
0.954434838318 0.00161965061698 0.0
1.12029532139 0.0293332263907 0.0
3.32091431343 0.232461885235 0.0
1.66562126205 -0.24692700784 0.0
1.66597427955 0.24556499892 0.0
1.15980929576 0.0279026910218 0.0
0.993269682911 -0.124276731854 0.0
1.05295472706 0.00424241981554 0.0
0.868136274116 0.0381290443555 0.0
0.928353395864 0.0160326412384 0.0
1.02394812503 0.0207581177057 0.0
1.25635846285 0.20956042866 0.0
0.934935726001 0.00981513292524 0.0
1.06976660191 -0.0143316665719 0.0
0.972612541356 0.00738654040928 0.0
1.19907453282 -0.346243359453 0.0
1.27493561873 0.238209538861 0.0
1.92029225083 0.10314060058 0.0
1.37185611213 -0.327141312135 0.0
1.91849612944 -0.103326213721 0.0
1.75319225974 1.0331063019 0.0
1.05256444554 0.00298365494281 0.0
1.04306255843 -0.00912673257684 0.0
2.55126287049 -0.0666445145394 0.0
2.5997094258 0.152091773018 0.0
1.0533121792 -0.00256093932242 0.0
1.00953900915 0.0401117684938 0.0
1.41504981421 0.0940328521829 0.0
1.00438893262 0.0361102198864 0.0
1.14055143995 0.0315793411545 0.0
0.899830122095 0.0239784539898 0.0
1.13444980114 -0.0425398561466 0.0
2.49631645482 -0.0954006313447 0.0
2.4929309573 0.0933493094804 0.0
2.32783548135 0.263109555925 0.0
2.32775596991 -0.263475345566 0.0
1.73048890237 -1.10849275951 0.0
1.73052426727 1.10821274592 0.0
1.4711383462 -0.131120118072 0.0
0.995114308056 -0.0296131915692 0.0
1.07782387386 0.0242434562364 0.0
1.05494754598 0.00382821201651 0.0
0.794156813795 0.256767387519 0.0
0.7926013154 -0.257033577912 0.0
2.50820258066 -0.955406313598 0.0
1.05490918415 0.00252957347636 0.0
0.737526180435 -0.418745354302 0.0
0.737010197966 0.418532536646 0.0
1.05474763566 0.00589849226773 0.0
1.56350281258 -0.278821125134 0.0
1.56312651692 0.278137286172 0.0
0.943034018657 -0.917459852252 0.0
1.51631012557 0.337800621846 0.0
1.20343648807 0.234683976344 0.0
1.09784746083 -0.0900774259664 0.0
1.1792393164 -0.0698337946106 0.0
0.906016379255 -0.0601210784158 0.0
1.03863640502 0.0156653932326 0.0
1.18932529408 0.125279437828 0.0
1.18856776505 -0.131383519562 0.0
0.749279306187 0.502649809915 0.0
1.01117862294 0.00543688758384 0.0
1.0505439491 0.00207964751579 0.0
1.03813495205 0.0149623337914 0.0
1.2360891703 0.157278978038 0.0
1.24019644605 -0.163038524027 0.0
0.182726883197 -0.156445390437 0.0
0.182767277684 0.153769326585 0.0
1.55866106944 0.509745985981 0.0
1.55656781824 -0.511649148273 0.0
1.1843100782 0.0660886088387 0.0
1.04995234172 0.00577077475407 0.0
0.85269020876 0.401717913397 0.0
0.854485965608 -0.402210648411 0.0
2.1884444938 -1.06309895376 0.0
2.11492990952 1.06027501932 0.0
2.46543257214 0.0276164134807 0.0
2.46444083228 -0.0289313110968 0.0
1.05678630258 0.00487276838559 0.0
0.865249115153 0.330714753459 0.0
0.861345673966 -0.32861483989 0.0
1.03638311107 0.150002662135 0.0
1.03474224107 -0.167145786264 0.0
0.909188475715 0.0575781672537 0.0
1.05503318049 0.0123525417713 0.0
1.15976762615 0.0765420190723 0.0
2.00430159087 -0.252357452481 0.0
1.07838204072 0.0521628735931 0.0
2.00225086967 0.257588485737 0.0
1.24176561674 -0.112475881798 0.0
0.993961306407 0.134701980162 0.0
1.03903709488 0.00443674340811 0.0
1.9030824427 -0.0387086962507 0.0
1.90362658135 0.0372020639264 0.0
1.07764005681 0.21992638199 0.0
1.71031845491 0.893321860515 0.0
1.71155445888 -0.893491927557 0.0
0.837811974912 -0.368090709863 0.0