# vtk DataFile Version 2.0
2D Simulation Python
ASCII
DATASET UNSTRUCTURED_GRID
FIELD FieldData 1
NODES 1 2 int
2757 5098

POINTS 2757 double
0.0 1.0 0.0
1.85 1.0 0.0
2.15 1.0 0.0
2.5312 0.9845000000000002 0.0
2.804 0.8597000000000001 0.0
3.1897 0.7164000000000001 0.0
3.4784 0.6349999999999998 0.0
3.8514 0.5613000000000001 0.0
4.1492 0.5257999999999998 0.0
4.5167 0.5049000000000001 0.0
4.8167 0.5003000000000002 0.0
5.1833 0.5003000000000002 0.0
5.4833 0.5049000000000001 0.0
5.8508 0.5257999999999998 0.0
6.1486 0.5613000000000001 0.0
6.5216 0.6349999999999998 0.0
6.8103 0.7164000000000001 0.0
7.196 0.8597000000000001 0.0
7.4688 0.9845000000000002 0.0
7.85 1.0 0.0
8.15 1.0 0.0
10.0 1.0 0.0
2.0 0.8500000000000001 0.0
2.604294 0.7837869999999998 0.0
3.292593 0.5288279999999999 0.0
3.982247 0.3922810000000001 0.0
4.6644 0.3515969999999999 0.0
5.3356 0.3515969999999999 0.0
6.017753 0.3922810000000001 0.0
6.707407 0.5288279999999999 0.0
7.395706 0.7837869999999998 0.0
8.0 0.8500000000000001 0.0
0.0 0.0 0.0
10.0 0.0 0.0
0.09589869952291516 1.0 0.0
0.1888147635033504 1.0 0.0
0.2788409054415558 1.0 0.0
0.3660670333996566 1.0 0.0
0.4505802302878947 1.0 0.0
0.5324648790931192 1.0 0.0
0.6118027156217198 1.0 0.0
0.6886729728356462 1.0 0.0
0.7631523848471844 1.0 0.0
0.8353153174851218 1.0 0.0
0.9052338217649879 1.0 0.0
0.9729776980408794 1.0 0.0
1.038614580849525 1.0 0.0
1.102210010843471 1.0 0.0
1.163827479442682 1.0 0.0
1.223528508355988 1.0 0.0
1.281372692526642 1.0 0.0
1.337417785230084 1.0 0.0
1.391719743967992 1.0 0.0
1.444332799787133 1.0 0.0
1.495309459666087 1.0 0.0
1.544700643890327 1.0 0.0
1.592555642113107 1.0 0.0
1.638922222094626 1.0 0.0
1.683846722920012 1.0 0.0
1.727373960837219 1.0 0.0
1.769547395111623 1.0 0.0
1.810409141995569 1.0 0.0
2.188119999999948 0.9984500000000022 0.0
2.226239999999895 0.9969000000000042 0.0
2.264359999999671 0.9953500000000134 0.0
2.302479999999619 0.9938000000000156 0.0
2.340599999999567 0.9922500000000177 0.0
2.378719999999689 0.9907000000000128 0.0
2.416839999999636 0.989150000000015 0.0
2.454959999999585 0.987600000000017 0.0
2.493079999999706 0.9860500000000121 0.0
2.839063636363584 0.8466727272727468 0.0
2.874127272727092 0.8336454545455219 0.0
2.909190909090677 0.8206181818182683 0.0
2.944254545454222 0.8075909090910295 0.0
2.97931818181763 0.7945636363638415 0.0
3.014381818181257 0.7815363636365724 0.0
3.049445454545112 0.7685090909092184 0.0
3.084509090908891 0.7554818181818926 0.0
3.119572727272518 0.7424545454546234 0.0
3.154636363636221 0.729427272727326 0.0
3.515699999999767 0.6276300000000459 0.0
3.552999999999703 0.6202600000000585 0.0
3.59029999999978 0.6128900000000433 0.0
3.627599999999699 0.6055200000000595 0.0
3.664899999999474 0.5981500000001038 0.0
3.702199999999584 0.5907800000000822 0.0
3.739499999999687 0.5834100000000619 0.0
3.776799999999796 0.5760400000000403 0.0
3.814099999999899 0.56867000000002 0.0
4.185950000000035 0.5237099999999979 0.0
4.22269999999962 0.5216200000000215 0.0
4.259449999999689 0.5195300000000176 0.0
4.296199999999274 0.5174400000000412 0.0
4.332949999999307 0.5153500000000395 0.0
4.369699999999686 0.5132600000000178 0.0
4.406449999999271 0.5111700000000414 0.0
4.443200000000032 0.5090799999999982 0.0
4.47994999999962 0.5069900000000217 0.0
4.85335999999993 0.5003000000000002 0.0
4.890019999999688 0.5003000000000002 0.0
4.926679999999445 0.5003000000000002 0.0
4.963339999999202 0.5003000000000002 0.0
4.99999999999948 0.5003000000000002 0.0
5.036659999999757 0.5003000000000002 0.0
5.073319999999861 0.5003000000000002 0.0
5.109979999999966 0.5003000000000002 0.0
5.14664000000007 0.5003000000000002 0.0
5.520050000000034 0.506990000000002 0.0
5.556799999999619 0.5090799999999784 0.0
5.593549999999689 0.5111699999999824 0.0
5.630299999999274 0.5132599999999587 0.0
5.667049999999306 0.5153499999999605 0.0
5.703799999999686 0.5174399999999821 0.0
5.740549999999271 0.5195299999999585 0.0
5.777300000000031 0.5216200000000017 0.0
5.814049999999619 0.5237099999999782 0.0
6.185899999999967 0.5686699999999937 0.0
6.223200000000103 0.5760400000000205 0.0
6.26049999999988 0.5834099999999763 0.0
6.297799999999683 0.5907799999999372 0.0
6.335099999999809 0.5981499999999621 0.0
6.372399999999617 0.6055199999999242 0.0
6.409700000000087 0.6128900000000171 0.0
6.446999999999897 0.6202599999999795 0.0
6.484300000000033 0.6276300000000062 0.0
6.845363636363626 0.7294272727272689 0.0
6.880427272727252 0.7424545454545377 0.0
6.915490909090877 0.7554818181818067 0.0
6.950554545454437 0.7685090909090506 0.0
6.985618181818142 0.7815363636363493 0.0
7.020681818181658 0.7945636363635772 0.0
7.055745454545396 0.8075909090908875 0.0
7.090809090908994 0.8206181818181463 0.0
7.125872727272663 0.8336454545454308 0.0
7.160936363636331 0.8466727272727155 0.0
7.50692 0.9860500000000001 0.0
7.545039999999653 0.987599999999986 0.0
7.583159999999308 0.989149999999972 0.0
7.621279999999653 0.990699999999986 0.0
7.659399999999653 0.992249999999986 0.0
7.697519999999654 0.993799999999986 0.0
7.735639999999999 0.9953500000000001 0.0
7.773759999999654 0.9968999999999859 0.0
7.811879999999999 0.99845 0.0
8.189361702128089 1.0 0.0
8.228723404256021 1.0 0.0
8.268085106383511 1.0 0.0
8.307446808511347 1.0 0.0
8.346808510638837 1.0 0.0
8.386170212766556 1.0 0.0
8.425531914894163 1.0 0.0
8.464893617021728 1.0 0.0
8.504255319149491 1.0 0.0
8.543617021276981 1.0 0.0
8.582978723404818 1.0 0.0
8.622340425532308 1.0 0.0
8.661702127660144 1.0 0.0
8.701063829787634 1.0 0.0
8.740425531915472 1.0 0.0
8.779787234042962 1.0 0.0
8.819148936170695 1.0 0.0
8.858510638298288 1.0 0.0
8.897872340425867 1.0 0.0
8.937234042553614 1.0 0.0
8.976595744681104 1.0 0.0
9.01595744680894 1.0 0.0
9.05531914893643 1.0 0.0
9.094680851064266 1.0 0.0
9.134042553191756 1.0 0.0
9.173404255319593 1.0 0.0
9.212765957447777 1.0 0.0
9.252127659575525 1.0 0.0
9.291489361703103 1.0 0.0
9.330851063830696 1.0 0.0
9.37021276595843 1.0 0.0
9.40957446808592 1.0 0.0
9.448936170213758 1.0 0.0
9.488297872341246 1.0 0.0
9.527659574469084 1.0 0.0
9.567021276596574 1.0 0.0
9.60638297872441 1.0 0.0
9.6457446808519 1.0 0.0
9.685106382979662 1.0 0.0
9.724468085107226 1.0 0.0
9.763829787234833 1.0 0.0
9.803191489362552 1.0 0.0
9.842553191490042 1.0 0.0
9.881914893617878 1.0 0.0
9.921276595745368 1.0 0.0
9.960638297872762 1.0 0.0
1.85511112605661 0.9611771432347338 0.0
1.87009618943224 0.9250000000001632 0.0
1.89393398282189 0.8939339828221454 0.0
1.924999999999842 0.8700961894324258 0.0
1.96117714323457 0.8551111260566537 0.0
2.51911222351653 0.9468943483281596 0.0
2.517261556501524 0.9074371004566797 0.0
2.525776366502026 0.8688651237292935 0.0
2.544066041990905 0.8338538805560812 0.0
2.570861958867948 0.8048318507040559 0.0
3.183399471121889 0.6773269167743563 0.0
3.187540640753236 0.6379663627768488 0.0
3.201835045303677 0.6010600964327384 0.0
3.225286972057683 0.569178916585472 0.0
3.256262818048977 0.5445435870349058 0.0
3.851311808445927 0.5217631357369752 0.0
3.861560068046178 0.4835774762734121 0.0
3.881432344049533 0.449397598275363 0.0
3.909547162863183 0.4215996059626037 0.0
3.94395004882614 0.4021159499676259 0.0
4.520996695771619 0.4658028333951991 0.0
4.53530678067777 0.4291658097571295 0.0
4.558646801051933 0.3975067908214496 0.0
4.589412725279813 0.3730015273561684 0.0
4.625490180094372 0.3573341317450809 0.0
5.188792203110742 0.4613608817416055 0.0
5.204215644069836 0.4251871800409458 0.0
5.228510353354086 0.3942649174043062 0.0
5.260006687237601 0.3707192133874752 0.0
5.296540073359643 0.3561682366420743 0.0
5.860011021539801 0.4873401270919612 0.0
5.878953813569356 0.4526244912484382 0.0
5.906311508814615 0.4240664581795365 0.0
5.94018225175748 0.4036513286316637 0.0
5.978211412052326 0.3927983240146977 0.0
6.536647498529492 0.5983695458969855 0.0
6.560754133038625 0.5669515963705687 0.0
6.592240694919373 0.5429346481718567 0.0
6.628913908052386 0.5279916625832858 0.0
6.668219207005813 0.523163531066366 0.0
7.216556713460987 0.8259527451430548 0.0
7.245211027874307 0.7987427112527251 0.0
7.279975409646859 0.7799572530799906 0.0
7.318438515914653 0.7708993761205898 0.0
7.357932451203028 0.7721973569569427 0.0
7.855111126056608 0.9611771432347389 0.0
7.87009618943239 0.9249999999999031 0.0
7.893933982821849 0.893933982822186 0.0
7.924999999999724 0.870096189432493 0.0
7.961177143234544 0.8551111260566602 0.0
2.038822856765458 0.8551111260566613 0.0
2.074999999999886 0.8700961894322686 0.0
2.106066017177859 0.8939339828218953 0.0
2.129903810567719 0.9250000000000924 0.0
2.144888873943354 0.9611771432345996 0.0
2.642072213105018 0.7722253821844589 0.0
2.68155866996913 0.7709276471286509 0.0
2.720014493007171 0.7799838089221203 0.0
2.754772291926727 0.7987657099507169 0.0
2.783421180466018 0.8259705914503371 0.0
3.331781228837649 0.5232065749202437 0.0
3.371075251522289 0.5280333212977997 0.0
3.407737943504146 0.5429720199040406 0.0
3.439215472227839 0.5669820778975886 0.0
3.463315190802363 0.5983910139513634 0.0
4.021785797379926 0.3928173305182819 0.0
4.059810087100174 0.4036689451393993 0.0
4.093676492056691 0.424081460024671 0.0
4.121030683473297 0.4526358355315954 0.0
4.139971049410406 0.4873470251801275 0.0
4.703463602180634 0.3561536952559329 0.0
4.740000641190358 0.3707061269192393 0.0
4.771500124319702 0.3942541852163063 0.0
4.795797262775971 0.4251795396981159 0.0
4.811222245889969 0.4613568583244396 0.0
5.37450551763444 0.3573491929815369 0.0
5.410579205991976 0.3730149529290054 0.0
5.44134191828321 0.3975176580649515 0.0
5.464679501979187 0.429173371825681 0.0
5.478988092924676 0.4658065705894096 0.0
6.056057512867302 0.4020971861494807 0.0
6.090465040120479 0.4215834706823507 0.0
6.118583651902696 0.4493852132201999 0.0
6.138458608873377 0.4835697024226929 0.0
6.14870825106575 0.521760513510746 0.0
6.743759676449819 0.5445060199603367 0.0
6.774744567243897 0.569148542912274 0.0
6.798203341851458 0.6010390319154575 0.0
6.812501920301792 0.6379560747176215 0.0
6.816644299135661 0.6773281218144781 0.0
[...]
POINT_DATA 2757
VECTORS vector double
0.0 0.0 0.0
0.0 0.0 0.0
0.0 0.0 0.0
0.0 0.0 0.0
0.0 0.0 0.0
0.0 0.0 0.0
0.0 0.0 0.0
0.0 0.0 0.0
0.0 0.0 0.0
0.0 0.0 0.0
0.0 0.0 0.0
0.0 0.0 0.0
0.0 0.0 0.0
0.0 0.0 0.0
0.0 0.0 0.0
0.0 0.0 0.0
0.0 0.0 0.0
0.0 0.0 0.0
0.0 0.0 0.0
0.0 0.0 0.0
0.0 0.0 0.0
0.0 0.0 0.0
0.0 0.0 0.0
0.0 0.0 0.0
0.0 0.0 0.0
0.0 0.0 0.0
0.0 0.0 0.0
0.0 0.0 0.0
0.0 0.0 0.0
0.0 0.0 0.0
0.0 0.0 0.0
0.0 0.0 0.0
1.5 -0.00248178053251 0.0
1.08644996485 2.79650006047e-06 0.0
0.0 0.0 0.0
0.0 0.0 0.0
0.0 0.0 0.0
0.0 0.0 0.0
0.0 0.0 0.0
0.0 0.0 0.0
0.0 0.0 0.0
0.0 0.0 0.0
0.0 0.0 0.0
0.0 0.0 0.0
0.0 0.0 0.0
0.0 0.0 0.0
0.0 0.0 0.0
0.0 0.0 0.0
0.0 0.0 0.0
0.0 0.0 0.0
0.0 0.0 0.0
0.0 0.0 0.0
0.0 0.0 0.0
0.0 0.0 0.0
0.0 0.0 0.0
0.0 0.0 0.0
0.0 0.0 0.0
0.0 0.0 0.0
0.0 0.0 0.0
0.0 0.0 0.0
0.0 0.0 0.0
0.0 0.0 0.0
0.0 0.0 0.0
0.0 0.0 0.0
0.0 0.0 0.0
0.0 0.0 0.0
0.0 0.0 0.0
0.0 0.0 0.0
0.0 0.0 0.0
0.0 0.0 0.0
0.0 0.0 0.0
0.0 0.0 0.0
0.0 0.0 0.0
0.0 0.0 0.0
0.0 0.0 0.0
0.0 0.0 0.0
0.0 0.0 0.0
0.0 0.0 0.0
0.0 0.0 0.0
0.0 0.0 0.0
0.0 0.0 0.0
0.0 0.0 0.0
0.0 0.0 0.0
0.0 0.0 0.0
0.0 0.0 0.0
0.0 0.0 0.0
0.0 0.0 0.0
0.0 0.0 0.0
0.0 0.0 0.0
0.0 0.0 0.0
0.0 0.0 0.0
0.0 0.0 0.0
0.0 0.0 0.0
0.0 0.0 0.0
0.0 0.0 0.0
0.0 0.0 0.0
0.0 0.0 0.0
0.0 0.0 0.0
0.0 0.0 0.0
0.0 0.0 0.0
0.0 0.0 0.0
0.0 0.0 0.0
0.0 0.0 0.0
0.0 0.0 0.0
0.0 0.0 0.0
0.0 0.0 0.0
0.0 0.0 0.0
0.0 0.0 0.0
0.0 0.0 0.0
0.0 0.0 0.0
0.0 0.0 0.0
0.0 0.0 0.0
0.0 0.0 0.0
0.0 0.0 0.0
0.0 0.0 0.0
0.0 0.0 0.0
0.0 0.0 0.0
0.0 0.0 0.0
0.0 0.0 0.0
0.0 0.0 0.0
0.0 0.0 0.0
0.0 0.0 0.0
0.0 0.0 0.0
0.0 0.0 0.0
0.0 0.0 0.0
0.0 0.0 0.0
0.0 0.0 0.0
0.0 0.0 0.0
0.0 0.0 0.0
0.0 0.0 0.0
0.0 0.0 0.0
0.0 0.0 0.0
0.0 0.0 0.0
0.0 0.0 0.0
0.0 0.0 0.0
0.0 0.0 0.0
0.0 0.0 0.0
0.0 0.0 0.0
0.0 0.0 0.0
0.0 0.0 0.0
0.0 0.0 0.0
0.0 0.0 0.0
0.0 0.0 0.0
0.0 0.0 0.0
0.0 0.0 0.0
0.0 0.0 0.0
0.0 0.0 0.0
0.0 0.0 0.0
0.0 0.0 0.0
0.0 0.0 0.0
0.0 0.0 0.0
0.0 0.0 0.0
0.0 0.0 0.0
0.0 0.0 0.0
0.0 0.0 0.0
0.0 0.0 0.0
0.0 0.0 0.0
0.0 0.0 0.0
0.0 0.0 0.0
0.0 0.0 0.0
0.0 0.0 0.0
0.0 0.0 0.0
0.0 0.0 0.0
0.0 0.0 0.0
0.0 0.0 0.0
0.0 0.0 0.0
0.0 0.0 0.0
0.0 0.0 0.0
0.0 0.0 0.0
0.0 0.0 0.0
0.0 0.0 0.0
0.0 0.0 0.0
0.0 0.0 0.0
0.0 0.0 0.0
0.0 0.0 0.0
0.0 0.0 0.0
0.0 0.0 0.0
0.0 0.0 0.0
0.0 0.0 0.0
0.0 0.0 0.0
0.0 0.0 0.0
0.0 0.0 0.0
0.0 0.0 0.0
0.0 0.0 0.0
0.0 0.0 0.0
0.0 0.0 0.0
0.0 0.0 0.0
0.0 0.0 0.0
0.0 0.0 0.0
0.0 0.0 0.0
0.0 0.0 0.0
0.0 0.0 0.0
0.0 0.0 0.0
0.0 0.0 0.0
0.0 0.0 0.0
0.0 0.0 0.0
0.0 0.0 0.0
0.0 0.0 0.0
0.0 0.0 0.0
0.0 0.0 0.0
0.0 0.0 0.0
0.0 0.0 0.0
0.0 0.0 0.0
0.0 0.0 0.0
0.0 0.0 0.0
0.0 0.0 0.0
0.0 0.0 0.0
0.0 0.0 0.0
0.0 0.0 0.0
0.0 0.0 0.0
0.0 0.0 0.0
0.0 0.0 0.0
0.0 0.0 0.0
0.0 0.0 0.0
0.0 0.0 0.0
0.0 0.0 0.0
0.0 0.0 0.0
0.0 0.0 0.0
0.0 0.0 0.0
0.0 0.0 0.0
0.0 0.0 0.0
0.0 0.0 0.0
0.0 0.0 0.0
0.0 0.0 0.0
0.0 0.0 0.0
0.0 0.0 0.0
0.0 0.0 0.0
0.0 0.0 0.0
0.0 0.0 0.0
0.0 0.0 0.0
0.0 0.0 0.0
0.0 0.0 0.0
0.0 0.0 0.0
0.0 0.0 0.0
0.0 0.0 0.0
0.0 0.0 0.0
0.0 0.0 0.0
0.0 0.0 0.0
0.0 0.0 0.0
0.0 0.0 0.0
0.0 0.0 0.0
0.0 0.0 0.0
0.0 0.0 0.0
0.0 0.0 0.0
0.0 0.0 0.0
0.0 0.0 0.0
0.0 0.0 0.0
0.0 0.0 0.0
0.0 0.0 0.0
0.0 0.0 0.0
0.0 0.0 0.0
0.0 0.0 0.0
0.0 0.0 0.0
0.0 0.0 0.0
0.0 0.0 0.0
0.0 0.0 0.0
0.0 0.0 0.0
0.0 0.0 0.0
0.0 0.0 0.0
0.0 0.0 0.0
0.0 0.0 0.0
0.0 0.0 0.0
0.0 0.0 0.0
0.0 0.0 0.0
0.0 0.0 0.0
0.0 0.0 0.0
0.0 0.0 0.0
0.0 0.0 0.0
0.0 0.0 0.0
0.0 0.0 0.0
0.0 0.0 0.0
0.0 0.0 0.0
0.0 0.0 0.0
0.0 0.0 0.0
0.0 0.0 0.0
0.0 0.0 0.0
0.0 0.0 0.0
0.0 0.0 0.0
0.0 0.0 0.0
0.0 0.0 0.0
0.0 0.0 0.0
0.0 0.0 0.0
0.0 0.0 0.0
0.0 0.0 0.0
0.0 0.0 0.0
0.0 0.0 0.0
0.0 0.0 0.0
0.0 0.0 0.0
0.0 0.0 0.0
0.0 0.0 0.0
0.0 0.0 0.0
1.5252658135 -0.00138202192968 0.0
1.48428714198 -0.00302388887664 0.0
1.45407887293 -0.00277406373974 0.0
1.38373354619 0.0107652267398 0.0
1.32873778504 -0.0205952209974 0.0
1.27401966678 0.00968038404301 0.0
1.21764689373 -0.00319865242693 0.0
1.19175490313 -0.00014334255061 0.0
1.16232888486 0.00256981936186 0.0
1.14379501154 -0.00232457816046 0.0
1.13510023553 -5.40947687612e-05 0.0
1.12983444897 0.000356018629368 0.0
1.13106822797 -0.000152236842346 0.0
1.13338522655 0.00011226610361 0.0
1.14107012869 0.00125182560503 0.0
1.14877731068 -0.00036382333549 0.0
1.16017395717 0.000412218338181 0.0
1.1761734132 -0.00132637290595 0.0
1.19494757526 0.000583221461687 0.0
1.21058881869 0.000831870250019 0.0
1.23137388844 -0.00223175731573 0.0
1.25700240339 0.0019696975059 0.0
1.27584600249 0.000485502054337 0.0
1.30868630728 -0.00332628239957 0.0
1.3489234307 0.000372487491753 0.0
1.38125085 0.00278729868395 0.0
1.43066563703 0.00686583070464 0.0
1.4857928474 -0.00771244806481 0.0
1.5644476892 0.00593149994978 0.0
1.64218192446 -0.00731282586416 0.0
1.74902327286 -0.00761231924756 0.0
1.84302742798 0.0058628013192 0.0
1.92869681665 0.0067753870452 0.0
2.01267386485 -0.00783227940313 0.0
2.11398794513 -0.00593408000279 0.0
2.20763985889 0.00333754828493 0.0
2.31261391159 0.00336063397948 0.0
2.41801559206 -0.00228871987025 0.0
2.5382725788 0.0019212027832 0.0
2.62773831851 0.00218958447583 0.0
2.69721202564 -0.00434826759552 0.0
2.74677928163 0.00345352327861 0.0
2.80685907016 -0.00315993590212 0.0
2.89219812655 0.00442531409954 0.0
2.95357896461 0.00116881874541 0.0
3.03101681783 -0.00553188560228 0.0
3.07839312266 0.000695007886107 0.0
3.08872519659 0.000821893512957 0.0
3.09660511223 0.00186838243086 0.0
3.10886765989 -0.000713949783306 0.0
3.13455630989 -0.000925201297494 0.0
3.14704807302 -0.00029572191073 0.0
3.15051018712 4.76732494498e-05 0.0
3.13714415804 0.00129133020365 0.0
3.09892064358 -0.00131194214942 0.0
3.05646710771 -0.00220681067742 0.0
2.98563225696 0.00275770222542 0.0
2.9285690684 -0.00381287687806 0.0
2.86863261393 0.00636646234434 0.0
2.78951344598 -0.00198357545247 0.0
2.70162135059 -0.00284181921078 0.0
2.58501897661 0.00101216227398 0.0
2.47522689936 -0.00221158525529 0.0
2.35785024472 -0.00363239022336 0.0
2.25118125187 0.00662767476011 0.0
2.13642998581 0.00870677508834 0.0
2.04326072616 -0.00753691717664 0.0
1.95188718383 -0.00629878861112 0.0
1.8521550622 0.00850749892199 0.0
1.74098836146 0.00372296866348 0.0
1.63091847017 0.0141075143839 0.0
1.56381564363 -0.0275819245865 0.0
1.50335227483 0.0152466775002 0.0
1.41979891753 -0.00239126729242 0.0
1.38683065781 -0.0046150805816 0.0
1.33451585452 0.00246636809103 0.0
1.29389160316 -5.93153335137e-06 0.0
1.27191777903 -0.0024122037109 0.0
1.24274667489 0.00273154335675 0.0
1.21870365092 -0.000608526562792 0.0
1.19958874282 0.000468348486926 0.0
1.18329849522 -0.00136309733339 0.0
1.16468853551 -0.00139871982922 0.0
1.15320844468 0.000351940448819 0.0
1.13936382287 -0.000524871535377 0.0
1.12547808037 0.000173593034439 0.0
1.11758789068 -0.000567874594419 0.0
1.10938150429 0.000203186117952 0.0
1.10406538075 -0.000625465534868 0.0
1.09817973468 0.000421244962918 0.0
1.09439415781 -0.000111003583531 0.0
1.09190617992 -2.09992096989e-05 0.0
1.08995395015 8.32605765648e-05 0.0
1.08845334429 -5.59753746827e-05 0.0
1.08769309168 -5.08916657246e-05 0.0
1.08724103033 3.24233010653e-05 0.0
1.08690453079 -4.60958192611e-05 0.0
1.08667600471 8.13087566894e-06 0.0
1.08648801067 -1.64464679563e-06 0.0
1.485 0.0012229700149 0.0
1.44 -0.00109946797614 0.0
1.365 -0.00824467302738 0.0
1.26 -0.00268192078427 0.0
1.125 0.0146743137382 0.0
0.960000000002 0.00655859934546 0.0
0.765000000002 0.00730733373711 0.0
0.540000000001 -0.0145919066794 0.0
0.285000000001 -0.022970652786 0.0
1.08644844145 3.64627385015e-05 0.0
1.08635262496 4.15037856077e-05 0.0
1.0862795568 3.41808764955e-05 0.0
1.08610770553 3.74850026419e-05 0.0
1.08589195681 3.64839878476e-05 0.0
1.08585573394 8.13352298778e-05 0.0
1.08574978393 9.50407271476e-05 0.0
1.08548971342 0.00016478422615 0.0
1.08339420637 0.000471908850589 0.0
1.07621621912 0.00222395773567 0.0
1.05394958065 0.0058205762224 0.0
1.00801808742 0.0101351473166 0.0
0.90048381101 0.00518550207736 0.0
0.664434617178 0.0212596981893 0.0
0.291873136602 0.0223061167958 0.0
1.12978026164 0.0865215815312 0.0
1.08513797199 0.00143995734694 0.0
1.08030380196 0.0212602479158 0.0
1.40487135472 -0.284577675301 0.0
1.45767737961 0.378684533158 0.0
1.09651212566 -0.0854184134458 0.0
1.20021759951 -0.0918723259035 0.0
1.186824911 0.155044156894 0.0
1.07908420368 0.0121395194496 0.0
2.02397638009 -0.265015216446 0.0
2.09234780772 0.345390656984 0.0
1.201963284 0.0799830925192 0.0
1.07863187145 0.00386321272786 0.0
1.1995980617 -0.108593381142 0.0
2.68476206583 0.0957668074783 0.0
2.57323060975 -0.1437753165 0.0
1.07056426377 0.154648890327 0.0
2.78781553591 -0.0684101987019 0.0
1.04340924265 0.0573571730202 0.0
1.0507556076 0.199199631974 0.0
1.07199633783 -0.000943605796632 0.0
1.27922577712 -0.201945427045 0.0
1.28609307101 0.225634079724 0.0
1.06839264735 0.000504717239938 0.0
0.951958701947 -0.137246559605 0.0
1.62419678675 -0.41083649947 0.0
1.76119364444 0.434919357268 0.0
1.05108648827 0.00598409430693 0.0
1.04434969214 -0.0274949287677 0.0
0.651447500447 0.145566172597 0.0
0.696741407494 0.0688759843997 0.0
1.20061209934 -0.0350054854607 0.0
1.10022139036 0.0372456236158 0.0
2.06701159558 0.260233490589 0.0
2.0290474809 -0.240178491072 0.0
1.08872669694 0.0064482288718 0.0
0.933428946227 0.114917822461 0.0
1.09534028911 -0.199493572546 0.0
1.1388371799 -0.430532144073 0.0
1.06463523427 0.477985419792 0.0
0.996047682092 0.323749022928 0.0
2.79910895975 0.117174346073 0.0
2.70939277877 -0.0613394669818 0.0
1.23103507703 -0.0600465683642 0.0
1.23924011866 0.0680983843664 0.0
1.10833584326 0.0303440629189 0.0
0.97905853061 -0.195246523092 0.0
1.06562990942 0.265523358478 0.0
1.11486431744 -0.0196937058866 0.0
1.03158658731 0.0370694634379 0.0
1.23276771672 0.0647170500674 0.0
1.00744599848 -0.00697326432915 0.0
0.999486556319 0.00224355126067 0.0
1.08637084068 0.000553042490335 0.0
1.16305323756 -0.0466669305648 0.0
0.967073878278 0.00831170339609 0.0
0.928882727478 0.160335337137 0.0
1.16362101757 -0.202791199458 0.0
1.26809438508 -0.102005157048 0.0
1.41805317275 0.150810019357 0.0
1.37614921464 -0.120561457711 0.0
1.1762018217 0.0500500058739 0.0
2.20853604437 -0.453777263765 0.0
2.34790565651 0.424105913001 0.0
0.972659512581 0.00464481448248 0.0
1.28282328927 0.130807404348 0.0
2.70706462518 0.233461967321 0.0
2.66605733519 -0.303511163126 0.0
2.8427234679 -0.0100569319548 0.0
2.64282290076 -0.255726831148 0.0
2.79947640433 0.202962762283 0.0
1.22087434882 0.186592391357 0.0
1.12779619734 0.05088383614 0.0
3.05905475268 -0.0975712774075 0.0
3.11715157382 0.0314623214693 0.0
1.08581528634 0.000437116993572 0.0
1.09570624718 -0.0794497644803 0.0
0.827454744198 0.218229645272 0.0
0.993568937075 -0.211281678856 0.0
0.654232569589 0.128140888605 0.0
0.953202451808 -0.00357803324216 0.0
0.963205864603 -0.0553215842912 0.0
1.3038593496 -0.238619844919 0.0
1.09703113282 0.0129575642377 0.0
1.01226547245 -0.0301759900971 0.0
0.763957415012 0.178581956868 0.0
3.01298157252 0.0380909828769 0.0
0.678811755463 0.0276634735157 0.0
0.931895256315 -0.0539376945596 0.0
1.00604169716 0.00244259347604 0.0
0.887962293826 0.0315152172939 0.0
0.767404587453 0.10293986889 0.0
0.638959441779 -0.116439299744 0.0
1.08749468261 0.00224977692564 0.0
1.20700486706 0.226026925066 0.0
0.400136933325 -0.047199109906 0.0
0.243752005738 0.11032845322 0.0
1.18594978188 0.124491403397 0.0
1.20155336942 0.0889187435466 0.0
1.22447637433 -0.0818013822923 0.0
0.948440983586 0.096035718578 0.0
1.39483916645 0.533867650394 0.0
1.0849241738 0.00395035681587 0.0
1.06654687052 0.194301646292 0.0
1.64975203272 0.205675509953 0.0
1.53584159991 -0.174295429914 0.0
1.08361992157 0.000609916162673 0.0
0.859335092133 0.00233236986902 0.0
0.852451501614 -0.00577527698802 0.0
1.11758757525 0.0112969684386 0.0
1.09258498686 0.0570655735387 0.0
0.866695918375 -0.00295141711368 0.0
1.35817554539 0.276790835339 0.0
0.688012728134 0.161063944609 0.0
0.418382581019 0.137167942215 0.0
1.88980373182 0.453960766942 0.0
1.93781157995 0.233200752762 0.0
1.91021372645 -0.502447007099 0.0
1.83477932766 -0.221481297666 0.0
0.703333912789 -0.210938323638 0.0
1.18273653672 0.107298259786 0.0
1.07813816595 0.00990507833006 0.0
0.435900450741 0.247043149184 0.0
1.21397040125 -0.316825700827 0.0
1.06248041186 0.0267547887853 0.0
1.08713580677 -0.0336851966557 0.0
1.19789760493 -0.0565523366482 0.0
1.24145083705 -0.132504885823 0.0
1.07147430121 0.106083046267 0.0
1.16827561517 0.259444987528 0.0
1.13795759597 0.0465959814926 0.0
1.35149145551 -0.204458115747 0.0
1.20595075864 0.0562882438882 0.0
1.13555961858 -0.112477713836 0.0
0.201621922382 0.0781675622874 0.0
0.581630328491 -0.152386067476 0.0
0.83455219165 -0.0736121379059 0.0
0.82277195914 0.0687553963497 0.0
1.95646557542 -0.161892053496 0.0
1.78876364798 0.182715597322 0.0
0.397572535121 -0.0472986738188 0.0
1.08384935337 -5.1768688964e-05 0.0
1.52737089882 -0.652927630864 0.0
0.919058905154 -0.0176493969017 0.0
1.073199113 0.0742492054666 0.0
1.08285099003 0.00231732042263 0.0
0.832532658837 0.130277915483 0.0
0.827314964424 -0.00888046430827 0.0
0.56279775724 -0.281914960225 0.0
0.789983968825 0.00412188328858 0.0
0.359280133883 0.109367070906 0.0
0.175190686276 0.0559756897504 0.0
0.293358026359 0.0162467120383 0.0
1.16620046422 0.0735418311363 0.0
0.641774808258 -0.0582143684619 0.0
0.982965960588 -0.281057288914 0.0
1.12113668742 -0.048322516843 0.0
1.13855362615 -0.0201218329483 0.0
2.08354940093 0.11409426515 0.0
2.34577637174 0.0159329878078 0.0
1.08591540639 0.0109387772472 0.0
1.20955856298 -0.156813433056 0.0
1.22614334174 0.204948943107 0.0
1.05020905833 0.136051152947 0.0
1.12082661996 -0.0163531142184 0.0
1.23743988519 -0.0864355163092 0.0
1.23767535981 0.11025202147 0.0
1.16956853383 -0.043102279411 0.0
1.08285276042 0.00690282035428 0.0
0.771603038733 0.0146352944423 0.0
0.709245203453 0.0473809632054 0.0
2.19604708332 0.171534577845 0.0
2.06318362801 -0.14438392818 0.0
1.53495498641 0.46557315668 0.0
1.06928746636 0.00400076313034 0.0
1.09814808939 0.106229978119 0.0
2.43616934576 0.191793066595 0.0
2.26142978957 -0.174069376896 0.0
1.056941024 -0.0574474341305 0.0
0.162418864861 0.0516774456141 0.0
0.154153993182 0.0897016363935 0.0
0.679302539657 0.00501821859996 0.0
1.36905251468 0.0807646209827 0.0
1.29577558093 0.0553111151382 0.0
1.13260527377 0.137583588745 0.0
0.677281847712 -0.238594808277 0.0
0.644381115021 0.225113824325 0.0
1.33922018732 -0.0592077723592 0.0
1.08269322008 -0.130492172938 0.0
1.09087294215 0.0306731535295 0.0
1.23409955276 -0.100236636271 0.0
1.06347053657 -0.00241327632802 0.0
0.794176886683 -0.0605595223608 0.0
0.432824409614 0.142549787487 0.0
1.26735157415 -0.041885608456 0.0
0.877007107749 -0.00856069309289 0.0
2.91673003279 -0.0515501531527 0.0
1.30751066634 -0.136876455212 0.0
1.08606214593 0.000264907715997 0.0
1.06982780521 -0.000139199200744 0.0
1.34277900498 0.180366719562 0.0
1.086274468 0.00143560089456 0.0
2.05950728685 -0.293860122198 0.0
1.93204752255 0.28092309176 0.0
0.89728215636 0.0110245881031 0.0
1.32973452801 -0.253161349734 0.0
1.1992350132 0.0659738327273 0.0
0.914711674506 0.131929357077 0.0
0.437187489928 -0.0587986910808 0.0
0.145027733668 0.148331079928 0.0
0.612836594404 0.0423570328705 0.0
0.634354547121 -0.00551411888862 0.0
0.719266825266 -0.0032219701534 0.0
1.4485938431 0.0711910838027 0.0
0.710946217871 -0.0981978790026 0.0
0.438062021385 0.121775470857 0.0
1.06601095542 0.200765446291 0.0
1.09809851666 -0.0100610413677 0.0
0.321437810152 -0.000997510443845 0.0
1.16751574561 -0.0795054651551 0.0
0.811286049573 0.247599645915 0.0
0.827720355671 -0.0619243274154 0.0
1.04802035115 0.154170518901 0.0
1.45532870368 -0.373661435895 0.0
0.786277013267 -0.020467342088 0.0
1.09413655099 0.00612610350497 0.0
1.08385405314 0.00116553598876 0.0
1.08945568461 0.00312504430764 0.0
1.08559682449 0.000806431426659 0.0
1.42664094185 -0.181260750818 0.0
2.32470686108 0.360357796079 0.0
2.76620167198 -0.146002730782 0.0
1.06993821828 0.0157496073632 0.0
2.64602742509 0.13807182103 0.0
2.3886236359 -0.585341244516 0.0
1.13084020155 0.0212098510611 0.0
1.50361268797 0.220422939502 0.0
1.45259849236 -0.101016124468 0.0
1.08713983171 0.000838463451706 0.0
2.69207834557 -0.284830720389 0.0
2.60983731116 0.0742465277581 0.0
0.646820799215 -0.0215199689078 0.0
1.08461145761 0.000336377459326 0.0
1.18775727116 -0.0273298200446 0.0
1.08641971805 0.000213059042892 0.0
1.21916304182 -0.032182783004 0.0
1.07377754303 0.0448894339257 0.0
1.10837823326 0.0123988264421 0.0
2.09661413957 0.144865818319 0.0
0.982110539821 -0.384207785308 0.0
1.10364820219 -0.161690368535 0.0
1.05920543291 0.019561097093 0.0
1.2263949139 0.0366417033942 0.0
1.26250499454 0.445278651485 0.0
1.29445578443 -0.327173719003 0.0
1.16079517228 0.134522814738 0.0
1.05193976117 0.00143274935255 0.0
0.702015816663 -0.000532760101741 0.0
1.15839966538 0.0307346188241 0.0
2.94317304115 0.0221857366687 0.0
1.68658073441 -0.232021671319 0.0
1.78910310564 0.246737835912 0.0
1.19833815621 0.0294340104298 0.0
1.02186163563 -0.0875881317739 0.0
1.07253811158 0.00240436108561 0.0
0.559235461503 0.0861518742595 0.0
0.636018000904 0.00618846554905 0.0
1.00219995088 0.030554362558 0.0
1.29825236922 0.35645575717 0.0
0.644225577046 -0.00601484666254 0.0
1.12560027217 -0.00357512874965 0.0
0.71465271992 0.0162248846286 0.0
1.14344585798 -0.254509007132 0.0
1.02514150867 0.00753534203704 0.0
2.08227489811 0.159620227725 0.0
1.1067133852 -0.263878324681 0.0
1.96538724866 -0.144985726537 0.0
1.51600612831 0.526470634801 0.0
1.07534004579 0.000256637839932 0.0
1.10508524011 0.0298605450738 0.0
3.09846067843 -0.0412265565321 0.0
3.05122438686 -0.00241761012323 0.0
1.13460381382 0.0209448491133 0.0
0.988461106109 0.0652286497813 0.0
1.51517433813 0.111974716553 0.0
0.987609585391 0.167265175754 0.0
1.15379671566 0.103318731613 0.0
0.592341493126 0.0158114588089 0.0
1.21380954581 -0.0641828397731 0.0
2.84666519547 -0.0947373492539 0.0
3.00703314899 0.0774664091852 0.0
2.61671458904 0.192255995054 0.0
2.44346023969 -0.20727754195 0.0
1.50823853105 -0.618439388447 0.0
1.27552982182 0.340029349683 0.0
1.21538294094 -0.22919798097 0.0
0.80710922535 -0.00208313517688 0.0
1.30609508724 0.105620169727 0.0
1.08582903697 0.00254260240063 0.0
0.170421428803 0.0215276822042 0.0
0.072854027461 0.0445238510838 0.0
1.90301299024 -0.143568479658 0.0
1.07118128388 0.000894884195452 0.0
0.23165663704 -0.0764410412369 0.0
-0.148268703839 -0.13019348176 0.0
1.17429333199 0.0491664376545 0.0
1.62657568828 -0.246487535576 0.0
1.51530810889 0.340696755345 0.0
0.882641229376 -0.630574140602 0.0
1.66730760551 0.344302547855 0.0
1.21071982039 0.131935744745 0.0
1.12880103097 -0.0734618456562 0.0
1.21326454919 -0.0794965969825 0.0
0.635251684019 -0.0314415079993 0.0
1.04919694883 0.0137311818195 0.0
1.24121805467 0.152287989709 0.0
1.23275824964 -0.111920317092 0.0
0.459487048107 0.157449508063 0.0
1.01910771336 0.0761740747209 0.0
1.08579625422 0.000237387590434 0.0
1.11277189376 0.106571278847 0.0
1.28325270216 0.181295097985 0.0
1.26567806803 -0.147738871985 0.0
0.0680294584416 -0.027111390172 0.0
-0.0402982933193 -0.0304238752251 0.0
1.1833411255 0.0319860922846 0.0
0.938603556053 0.0567351060669 0.0
1.20959775829 0.0746883016998 0.0
1.01900740687 -0.00136171978249 0.0
0.113401437306 0.0643256178829 0.0
-0.0229789673205 0.0851702489376 0.0
1.73688483611 -0.331307569395 0.0
1.30490676991 0.159099736114 0.0
2.75177118246 -0.0634326420878 0.0
2.93669840049 0.0624234434894 0.0
1.08709885392 0.00427505253529 0.0
-0.195684462318 -0.132126383634 0.0
0.104547793569 0.0022140782296 0.0
1.10396455143 0.207159672684 0.0
1.103964071 -0.0860203096178 0.0
0.628457385619 0.0785854585344 0.0
0.9996223221 -0.00184538033957 0.0
1.19163182141 0.0720689744883 0.0
1.9556871421 -0.3028902486 0.0
1.11687067625 0.0600603666413 0.0
2.01528309933 0.31367458679 0.0
1.22250417574 -0.142269927519 0.0
0.909165147064 0.0934327371803 0.0
1.02217994121 0.00275371711067 0.0
2.03696494461 -0.210439594689 0.0
2.07828485501 0.2693928325 0.0
1.14743518286 0.168799972526 0.0
1.15720703988 0.164751927857 0.0