# vtk DataFile Version 2.0
2D Simulation Python
ASCII
DATASET UNSTRUCTURED_GRID
FIELD FieldData 1
NODES 1 2 int
2757 5098

POINTS 2757 double
0.0 1.0 0.0
1.85 1.0 0.0
2.15 1.0 0.0
2.5312 0.9845000000000002 0.0
2.804 0.8597000000000001 0.0
3.1897 0.7164000000000001 0.0
3.4784 0.6349999999999998 0.0
3.8514 0.5613000000000001 0.0
4.1492 0.5257999999999998 0.0
4.5167 0.5049000000000001 0.0
4.8167 0.5003000000000002 0.0
5.1833 0.5003000000000002 0.0
5.4833 0.5049000000000001 0.0
5.8508 0.5257999999999998 0.0
6.1486 0.5613000000000001 0.0
6.5216 0.6349999999999998 0.0
6.8103 0.7164000000000001 0.0
7.196 0.8597000000000001 0.0
7.4688 0.9845000000000002 0.0
7.85 1.0 0.0
8.15 1.0 0.0
10.0 1.0 0.0
2.0 0.8500000000000001 0.0
2.604294 0.7837869999999998 0.0
3.292593 0.5288279999999999 0.0
3.982247 0.3922810000000001 0.0
4.6644 0.3515969999999999 0.0
5.3356 0.3515969999999999 0.0
6.017753 0.3922810000000001 0.0
6.707407 0.5288279999999999 0.0
7.395706 0.7837869999999998 0.0
8.0 0.8500000000000001 0.0
0.0 0.0 0.0
10.0 0.0 0.0
0.09589869952291516 1.0 0.0
0.1888147635033504 1.0 0.0
0.2788409054415558 1.0 0.0
0.3660670333996566 1.0 0.0
0.4505802302878947 1.0 0.0
0.5324648790931192 1.0 0.0
0.6118027156217198 1.0 0.0
0.6886729728356462 1.0 0.0
0.7631523848471844 1.0 0.0
0.8353153174851218 1.0 0.0
0.9052338217649879 1.0 0.0
0.9729776980408794 1.0 0.0
1.038614580849525 1.0 0.0
1.102210010843471 1.0 0.0
1.163827479442682 1.0 0.0
1.223528508355988 1.0 0.0
1.281372692526642 1.0 0.0
1.337417785230084 1.0 0.0
1.391719743967992 1.0 0.0
1.444332799787133 1.0 0.0
1.495309459666087 1.0 0.0
1.544700643890327 1.0 0.0
1.592555642113107 1.0 0.0
1.638922222094626 1.0 0.0
1.683846722920012 1.0 0.0
1.727373960837219 1.0 0.0
1.769547395111623 1.0 0.0
1.810409141995569 1.0 0.0
2.188119999999948 0.9984500000000022 0.0
2.226239999999895 0.9969000000000042 0.0
2.264359999999671 0.9953500000000134 0.0
2.302479999999619 0.9938000000000156 0.0
2.340599999999567 0.9922500000000177 0.0
2.378719999999689 0.9907000000000128 0.0
2.416839999999636 0.989150000000015 0.0
2.454959999999585 0.987600000000017 0.0
2.493079999999706 0.9860500000000121 0.0
2.839063636363584 0.8466727272727468 0.0
2.874127272727092 0.8336454545455219 0.0
2.909190909090677 0.8206181818182683 0.0
2.944254545454222 0.8075909090910295 0.0
2.97931818181763 0.7945636363638415 0.0
3.014381818181257 0.7815363636365724 0.0
3.049445454545112 0.7685090909092184 0.0
3.084509090908891 0.7554818181818926 0.0
3.119572727272518 0.7424545454546234 0.0
3.154636363636221 0.729427272727326 0.0
3.515699999999767 0.6276300000000459 0.0
3.552999999999703 0.6202600000000585 0.0
3.59029999999978 0.6128900000000433 0.0
3.627599999999699 0.6055200000000595 0.0
3.664899999999474 0.5981500000001038 0.0
3.702199999999584 0.5907800000000822 0.0
3.739499999999687 0.5834100000000619 0.0
3.776799999999796 0.5760400000000403 0.0
3.814099999999899 0.56867000000002 0.0
4.185950000000035 0.5237099999999979 0.0
4.22269999999962 0.5216200000000215 0.0
4.259449999999689 0.5195300000000176 0.0
4.296199999999274 0.5174400000000412 0.0
4.332949999999307 0.5153500000000395 0.0
4.369699999999686 0.5132600000000178 0.0
4.406449999999271 0.5111700000000414 0.0
4.443200000000032 0.5090799999999982 0.0
4.47994999999962 0.5069900000000217 0.0
4.85335999999993 0.5003000000000002 0.0
4.890019999999688 0.5003000000000002 0.0
4.926679999999445 0.5003000000000002 0.0
4.963339999999202 0.5003000000000002 0.0
4.99999999999948 0.5003000000000002 0.0
5.036659999999757 0.5003000000000002 0.0
5.073319999999861 0.5003000000000002 0.0
5.109979999999966 0.5003000000000002 0.0
5.14664000000007 0.5003000000000002 0.0
5.520050000000034 0.506990000000002 0.0
5.556799999999619 0.5090799999999784 0.0
5.593549999999689 0.5111699999999824 0.0
5.630299999999274 0.5132599999999587 0.0
5.667049999999306 0.5153499999999605 0.0
5.703799999999686 0.5174399999999821 0.0
5.740549999999271 0.5195299999999585 0.0
5.777300000000031 0.5216200000000017 0.0
5.814049999999619 0.5237099999999782 0.0
6.185899999999967 0.5686699999999937 0.0
6.223200000000103 0.5760400000000205 0.0
6.26049999999988 0.5834099999999763 0.0
6.297799999999683 0.5907799999999372 0.0
6.335099999999809 0.5981499999999621 0.0
6.372399999999617 0.6055199999999242 0.0
6.409700000000087 0.6128900000000171 0.0
6.446999999999897 0.6202599999999795 0.0
6.484300000000033 0.6276300000000062 0.0
6.845363636363626 0.7294272727272689 0.0
6.880427272727252 0.7424545454545377 0.0
6.915490909090877 0.7554818181818067 0.0
6.950554545454437 0.7685090909090506 0.0
6.985618181818142 0.7815363636363493 0.0
7.020681818181658 0.7945636363635772 0.0
7.055745454545396 0.8075909090908875 0.0
7.090809090908994 0.8206181818181463 0.0
7.125872727272663 0.8336454545454308 0.0
7.160936363636331 0.8466727272727155 0.0
7.50692 0.9860500000000001 0.0
7.545039999999653 0.987599999999986 0.0
7.583159999999308 0.989149999999972 0.0
7.621279999999653 0.990699999999986 0.0
7.659399999999653 0.992249999999986 0.0
7.697519999999654 0.993799999999986 0.0
7.735639999999999 0.9953500000000001 0.0
7.773759999999654 0.9968999999999859 0.0
7.811879999999999 0.99845 0.0
8.189361702128089 1.0 0.0
8.228723404256021 1.0 0.0
8.268085106383511 1.0 0.0
8.307446808511347 1.0 0.0
8.346808510638837 1.0 0.0
8.386170212766556 1.0 0.0
8.425531914894163 1.0 0.0
8.464893617021728 1.0 0.0
8.504255319149491 1.0 0.0
8.543617021276981 1.0 0.0
8.582978723404818 1.0 0.0
8.622340425532308 1.0 0.0
8.661702127660144 1.0 0.0
8.701063829787634 1.0 0.0
8.740425531915472 1.0 0.0
8.779787234042962 1.0 0.0
8.819148936170695 1.0 0.0
8.858510638298288 1.0 0.0
8.897872340425867 1.0 0.0
8.937234042553614 1.0 0.0
8.976595744681104 1.0 0.0
9.01595744680894 1.0 0.0
9.05531914893643 1.0 0.0
9.094680851064266 1.0 0.0
9.134042553191756 1.0 0.0
9.173404255319593 1.0 0.0
9.212765957447777 1.0 0.0
9.252127659575525 1.0 0.0
9.291489361703103 1.0 0.0
9.330851063830696 1.0 0.0
9.37021276595843 1.0 0.0
9.40957446808592 1.0 0.0
9.448936170213758 1.0 0.0
9.488297872341246 1.0 0.0
9.527659574469084 1.0 0.0
9.567021276596574 1.0 0.0
9.60638297872441 1.0 0.0
9.6457446808519 1.0 0.0
9.685106382979662 1.0 0.0
9.724468085107226 1.0 0.0
9.763829787234833 1.0 0.0
9.803191489362552 1.0 0.0
9.842553191490042 1.0 0.0
9.881914893617878 1.0 0.0
9.921276595745368 1.0 0.0
9.960638297872762 1.0 0.0
1.85511112605661 0.9611771432347338 0.0
1.87009618943224 0.9250000000001632 0.0
1.89393398282189 0.8939339828221454 0.0
1.924999999999842 0.8700961894324258 0.0
1.96117714323457 0.8551111260566537 0.0
2.51911222351653 0.9468943483281596 0.0
2.517261556501524 0.9074371004566797 0.0
2.525776366502026 0.8688651237292935 0.0
2.544066041990905 0.8338538805560812 0.0
2.570861958867948 0.8048318507040559 0.0
3.183399471121889 0.6773269167743563 0.0
3.187540640753236 0.6379663627768488 0.0
3.201835045303677 0.6010600964327384 0.0
3.225286972057683 0.569178916585472 0.0
3.256262818048977 0.5445435870349058 0.0
3.851311808445927 0.5217631357369752 0.0
3.861560068046178 0.4835774762734121 0.0
3.881432344049533 0.449397598275363 0.0
3.909547162863183 0.4215996059626037 0.0
3.94395004882614 0.4021159499676259 0.0
4.520996695771619 0.4658028333951991 0.0
4.53530678067777 0.4291658097571295 0.0
4.558646801051933 0.3975067908214496 0.0
4.589412725279813 0.3730015273561684 0.0
4.625490180094372 0.3573341317450809 0.0
5.188792203110742 0.4613608817416055 0.0
5.204215644069836 0.4251871800409458 0.0
5.228510353354086 0.3942649174043062 0.0
5.260006687237601 0.3707192133874752 0.0
5.296540073359643 0.3561682366420743 0.0
5.860011021539801 0.4873401270919612 0.0
5.878953813569356 0.4526244912484382 0.0
5.906311508814615 0.4240664581795365 0.0
5.94018225175748 0.4036513286316637 0.0
5.978211412052326 0.3927983240146977 0.0
6.536647498529492 0.5983695458969855 0.0
6.560754133038625 0.5669515963705687 0.0
6.592240694919373 0.5429346481718567 0.0
6.628913908052386 0.5279916625832858 0.0
6.668219207005813 0.523163531066366 0.0
7.216556713460987 0.8259527451430548 0.0
7.245211027874307 0.7987427112527251 0.0
7.279975409646859 0.7799572530799906 0.0
7.318438515914653 0.7708993761205898 0.0
7.357932451203028 0.7721973569569427 0.0
7.855111126056608 0.9611771432347389 0.0
7.87009618943239 0.9249999999999031 0.0
7.893933982821849 0.893933982822186 0.0
7.924999999999724 0.870096189432493 0.0
7.961177143234544 0.8551111260566602 0.0
2.038822856765458 0.8551111260566613 0.0
2.074999999999886 0.8700961894322686 0.0
2.106066017177859 0.8939339828218953 0.0
2.129903810567719 0.9250000000000924 0.0
2.144888873943354 0.9611771432345996 0.0
2.642072213105018 0.7722253821844589 0.0
2.68155866996913 0.7709276471286509 0.0
2.720014493007171 0.7799838089221203 0.0
2.754772291926727 0.7987657099507169 0.0
2.783421180466018 0.8259705914503371 0.0
3.331781228837649 0.5232065749202437 0.0
3.371075251522289 0.5280333212977997 0.0
3.407737943504146 0.5429720199040406 0.0
3.439215472227839 0.5669820778975886 0.0
3.463315190802363 0.5983910139513634 0.0
4.021785797379926 0.3928173305182819 0.0
4.059810087100174 0.4036689451393993 0.0
4.093676492056691 0.424081460024671 0.0
4.121030683473297 0.4526358355315954 0.0
4.139971049410406 0.4873470251801275 0.0
4.703463602180634 0.3561536952559329 0.0
4.740000641190358 0.3707061269192393 0.0
4.771500124319702 0.3942541852163063 0.0
4.795797262775971 0.4251795396981159 0.0
4.811222245889969 0.4613568583244396 0.0
5.37450551763444 0.3573491929815369 0.0
5.410579205991976 0.3730149529290054 0.0
5.44134191828321 0.3975176580649515 0.0
5.464679501979187 0.429173371825681 0.0
5.478988092924676 0.4658065705894096 0.0
6.056057512867302 0.4020971861494807 0.0
6.090465040120479 0.4215834706823507 0.0
6.118583651902696 0.4493852132201999 0.0
6.138458608873377 0.4835697024226929 0.0
6.14870825106575 0.521760513510746 0.0
6.743759676449819 0.5445060199603367 0.0
6.774744567243897 0.569148542912274 0.0
6.798203341851458 0.6010390319154575 0.0
6.812501920301792 0.6379560747176215 0.0
6.816644299135661 0.6773281218144781 0.0
[...]
POINT_DATA 2757
VECTORS vector double
0.0 0.0 0.0
0.0 0.0 0.0
0.0 0.0 0.0
0.0 0.0 0.0
0.0 0.0 0.0
0.0 0.0 0.0
0.0 0.0 0.0
0.0 0.0 0.0
0.0 0.0 0.0
0.0 0.0 0.0
0.0 0.0 0.0
0.0 0.0 0.0
0.0 0.0 0.0
0.0 0.0 0.0
0.0 0.0 0.0
0.0 0.0 0.0
0.0 0.0 0.0
0.0 0.0 0.0
0.0 0.0 0.0
0.0 0.0 0.0
0.0 0.0 0.0
0.0 0.0 0.0
0.0 0.0 0.0
0.0 0.0 0.0
0.0 0.0 0.0
0.0 0.0 0.0
0.0 0.0 0.0
0.0 0.0 0.0
0.0 0.0 0.0
0.0 0.0 0.0
0.0 0.0 0.0
0.0 0.0 0.0
1.5 -0.0207288346026 0.0
1.00119394361 -1.38917002376e-05 0.0
0.0 0.0 0.0
0.0 0.0 0.0
0.0 0.0 0.0
0.0 0.0 0.0
0.0 0.0 0.0
0.0 0.0 0.0
0.0 0.0 0.0
0.0 0.0 0.0
0.0 0.0 0.0
0.0 0.0 0.0
0.0 0.0 0.0
0.0 0.0 0.0
0.0 0.0 0.0
0.0 0.0 0.0
0.0 0.0 0.0
0.0 0.0 0.0
0.0 0.0 0.0
0.0 0.0 0.0
0.0 0.0 0.0
0.0 0.0 0.0
0.0 0.0 0.0
0.0 0.0 0.0
0.0 0.0 0.0
0.0 0.0 0.0
0.0 0.0 0.0
0.0 0.0 0.0
0.0 0.0 0.0
0.0 0.0 0.0
0.0 0.0 0.0
0.0 0.0 0.0
0.0 0.0 0.0
0.0 0.0 0.0
0.0 0.0 0.0
0.0 0.0 0.0
0.0 0.0 0.0
0.0 0.0 0.0
0.0 0.0 0.0
0.0 0.0 0.0
0.0 0.0 0.0
0.0 0.0 0.0
0.0 0.0 0.0
0.0 0.0 0.0
0.0 0.0 0.0
0.0 0.0 0.0
0.0 0.0 0.0
0.0 0.0 0.0
0.0 0.0 0.0
0.0 0.0 0.0
0.0 0.0 0.0
0.0 0.0 0.0
0.0 0.0 0.0
0.0 0.0 0.0
0.0 0.0 0.0
0.0 0.0 0.0
0.0 0.0 0.0
0.0 0.0 0.0
0.0 0.0 0.0
0.0 0.0 0.0
0.0 0.0 0.0
0.0 0.0 0.0
0.0 0.0 0.0
0.0 0.0 0.0
0.0 0.0 0.0
0.0 0.0 0.0
0.0 0.0 0.0
0.0 0.0 0.0
0.0 0.0 0.0
0.0 0.0 0.0
0.0 0.0 0.0
0.0 0.0 0.0
0.0 0.0 0.0
0.0 0.0 0.0
0.0 0.0 0.0
0.0 0.0 0.0
0.0 0.0 0.0
0.0 0.0 0.0
0.0 0.0 0.0
0.0 0.0 0.0
0.0 0.0 0.0
0.0 0.0 0.0
0.0 0.0 0.0
0.0 0.0 0.0
0.0 0.0 0.0
0.0 0.0 0.0
0.0 0.0 0.0
0.0 0.0 0.0
0.0 0.0 0.0
0.0 0.0 0.0
0.0 0.0 0.0
0.0 0.0 0.0
0.0 0.0 0.0
0.0 0.0 0.0
0.0 0.0 0.0
0.0 0.0 0.0
0.0 0.0 0.0
0.0 0.0 0.0
0.0 0.0 0.0
0.0 0.0 0.0
0.0 0.0 0.0
0.0 0.0 0.0
0.0 0.0 0.0
0.0 0.0 0.0
0.0 0.0 0.0
0.0 0.0 0.0
0.0 0.0 0.0
0.0 0.0 0.0
0.0 0.0 0.0
0.0 0.0 0.0
0.0 0.0 0.0
0.0 0.0 0.0
0.0 0.0 0.0
0.0 0.0 0.0
0.0 0.0 0.0
0.0 0.0 0.0
0.0 0.0 0.0
0.0 0.0 0.0
0.0 0.0 0.0
0.0 0.0 0.0
0.0 0.0 0.0
0.0 0.0 0.0
0.0 0.0 0.0
0.0 0.0 0.0
0.0 0.0 0.0
0.0 0.0 0.0
0.0 0.0 0.0
0.0 0.0 0.0
0.0 0.0 0.0
0.0 0.0 0.0
0.0 0.0 0.0
0.0 0.0 0.0
0.0 0.0 0.0
0.0 0.0 0.0
0.0 0.0 0.0
0.0 0.0 0.0
0.0 0.0 0.0
0.0 0.0 0.0
0.0 0.0 0.0
0.0 0.0 0.0
0.0 0.0 0.0
0.0 0.0 0.0
0.0 0.0 0.0
0.0 0.0 0.0
0.0 0.0 0.0
0.0 0.0 0.0
0.0 0.0 0.0
0.0 0.0 0.0
0.0 0.0 0.0
0.0 0.0 0.0
0.0 0.0 0.0
0.0 0.0 0.0
0.0 0.0 0.0
0.0 0.0 0.0
0.0 0.0 0.0
0.0 0.0 0.0
0.0 0.0 0.0
0.0 0.0 0.0
0.0 0.0 0.0
0.0 0.0 0.0
0.0 0.0 0.0
0.0 0.0 0.0
0.0 0.0 0.0
0.0 0.0 0.0
0.0 0.0 0.0
0.0 0.0 0.0
0.0 0.0 0.0
0.0 0.0 0.0
0.0 0.0 0.0
0.0 0.0 0.0
0.0 0.0 0.0
0.0 0.0 0.0
0.0 0.0 0.0
0.0 0.0 0.0
0.0 0.0 0.0
0.0 0.0 0.0
0.0 0.0 0.0
0.0 0.0 0.0
0.0 0.0 0.0
0.0 0.0 0.0
0.0 0.0 0.0
0.0 0.0 0.0
0.0 0.0 0.0
0.0 0.0 0.0
0.0 0.0 0.0
0.0 0.0 0.0
0.0 0.0 0.0
0.0 0.0 0.0
0.0 0.0 0.0
0.0 0.0 0.0
0.0 0.0 0.0
0.0 0.0 0.0
0.0 0.0 0.0
0.0 0.0 0.0
0.0 0.0 0.0
0.0 0.0 0.0
0.0 0.0 0.0
0.0 0.0 0.0
0.0 0.0 0.0
0.0 0.0 0.0
0.0 0.0 0.0
0.0 0.0 0.0
0.0 0.0 0.0
0.0 0.0 0.0
0.0 0.0 0.0
0.0 0.0 0.0
0.0 0.0 0.0
0.0 0.0 0.0
0.0 0.0 0.0
0.0 0.0 0.0
0.0 0.0 0.0
0.0 0.0 0.0
0.0 0.0 0.0
0.0 0.0 0.0
0.0 0.0 0.0
0.0 0.0 0.0
0.0 0.0 0.0
0.0 0.0 0.0
0.0 0.0 0.0
0.0 0.0 0.0
0.0 0.0 0.0
0.0 0.0 0.0
0.0 0.0 0.0
0.0 0.0 0.0
0.0 0.0 0.0
0.0 0.0 0.0
0.0 0.0 0.0
0.0 0.0 0.0
0.0 0.0 0.0
0.0 0.0 0.0
0.0 0.0 0.0
0.0 0.0 0.0
0.0 0.0 0.0
0.0 0.0 0.0
0.0 0.0 0.0
0.0 0.0 0.0
0.0 0.0 0.0
0.0 0.0 0.0
0.0 0.0 0.0
0.0 0.0 0.0
0.0 0.0 0.0
0.0 0.0 0.0
0.0 0.0 0.0
0.0 0.0 0.0
0.0 0.0 0.0
0.0 0.0 0.0
0.0 0.0 0.0
0.0 0.0 0.0
0.0 0.0 0.0
0.0 0.0 0.0
0.0 0.0 0.0
0.0 0.0 0.0
0.0 0.0 0.0
0.0 0.0 0.0
0.0 0.0 0.0
0.0 0.0 0.0
0.0 0.0 0.0
0.0 0.0 0.0
0.0 0.0 0.0
1.04308572603 0.00456985922598 0.0
1.04509810459 0.00170202253167 0.0
1.03788598734 -0.00157155961372 0.0
1.02474423618 0.000859828960979 0.0
1.02133705727 -0.00139796340015 0.0
1.01737484083 0.000594031746701 0.0
1.01483236121 -8.34465749297e-05 0.0
1.01426020957 -5.91995517313e-06 0.0
1.01435018634 -5.40515584952e-05 0.0
1.01550063091 8.98056386702e-05 0.0
1.01838135735 -0.000121950188931 0.0
1.02344711176 0.00059247685872 0.0
1.02904967004 -0.000379142151811 0.0
1.03533292356 0.000711405215003 0.0
1.04566246372 0.0012994275903 0.0
1.05417596852 -0.000298335781252 0.0
1.06625189213 0.000537516938084 0.0
1.08131720577 -0.00136842996269 0.0
1.09829599293 0.000604270568882 0.0
1.11125216363 0.000795473289744 0.0
1.12921302061 -0.00201172938372 0.0
1.15119059191 0.00219319018451 0.0
1.16744328072 0.000340401128409 0.0
1.19638179006 -0.00313541692134 0.0
1.23228756161 0.000105133163048 0.0
1.26178452469 0.00240142890109 0.0
1.30593558912 0.00631201030253 0.0
1.35204283201 -0.00645186800559 0.0
1.41999539027 0.00551172747594 0.0
1.48783583761 -0.00695307642105 0.0
1.5748180602 -0.00630935676593 0.0
1.64728186022 0.00531243606084 0.0
1.70711854104 0.00451854527281 0.0
1.76235985176 -0.00562116382076 0.0
1.82941039702 -0.0034871247829 0.0
1.89544997354 0.00331214053521 0.0
1.98087206082 0.00446473008516 0.0
2.07326335345 -0.00321699325576 0.0
2.17749751416 0.000730118602765 0.0
2.24487159408 0.00126723424533 0.0
2.26150602334 0.00248675937825 0.0
2.2500865622 -0.000366343349084 0.0
2.25856855395 -0.000209237177953 0.0
2.31779004612 0.00594015771947 0.0
2.38776886803 -0.000252866129236 0.0
2.47775791497 -0.00719542594199 0.0
2.5025809784 0.000366808027844 0.0
2.45193648093 0.00205053510959 0.0
2.38705723 0.00579364306059 0.0
2.35862494595 -0.00736979620777 0.0
2.39334155693 -0.00312042647553 0.0
2.46175802711 -0.000978429084432 0.0
2.50204340784 -0.000693592041894 0.0
2.47762936178 0.00613816318574 0.0
2.38902687841 0.00124717085142 0.0
2.3175690673 -0.00655537382782 0.0
2.25876645754 0.000296937616199 0.0
2.25018838695 0.000314925809109 0.0
2.26151300397 -0.00248406462052 0.0
2.24497589963 -0.00126921386974 0.0
2.17754014866 -0.00072078640394 0.0
2.07331911152 0.00320825823294 0.0
1.98094672197 -0.00445921973604 0.0
1.89554780421 -0.00331628124197 0.0
1.82960928456 0.00350024245372 0.0
1.76256080745 0.00562020707184 0.0
1.70723860626 -0.00446185143383 0.0
1.64789191775 -0.00519641996627 0.0
1.57444913162 0.00689008998327 0.0
1.48887254059 0.0034807747175 0.0
1.40637298278 0.0115269073712 0.0
1.35745729728 -0.0218879024034 0.0
1.3131437462 0.0118501513478 0.0
1.25526772882 -0.00165976076842 0.0
1.23248835824 -0.00343692143386 0.0
1.19577207865 0.00190336184656 0.0
1.16760580173 -9.48361984082e-05 0.0
1.15215015171 -0.00217774010072 0.0
1.13012639775 0.00213910728068 0.0
1.11125611399 -0.000502208597616 0.0
1.09638515763 0.000527919660653 0.0
1.08246756578 -0.00136929520309 0.0
1.06629775288 -0.00107498234968 0.0
1.05641533086 0.000330528899502 0.0
1.04438210306 -0.000321502920977 0.0
1.03321545186 3.13563531972e-05 0.0
1.02722854164 -0.000485828368835 0.0
1.02073260472 0.000162074223066 0.0
1.0162538001 -0.000446884326035 0.0
1.01140866551 0.000280745597423 0.0
1.00851945167 -0.000104167155399 0.0
1.00649105848 -2.34724482779e-05 0.0
1.00480637842 0.000100705784045 0.0
1.00344571592 -6.47183287724e-05 0.0
1.00256668351 -5.21537360859e-05 0.0
1.00193074181 3.5903557454e-05 0.0
1.00170324296 -5.66657809564e-05 0.0
1.0015796419 2.17093827042e-05 0.0
1.00126352585 2.09297234554e-06 0.0
1.485 -0.0107033201505 0.0
1.44 0.00939148036157 0.0
1.365 0.0480638407476 0.0
1.26 0.0063795320915 0.0
1.125 0.0359331191464 0.0
0.960000000002 0.0515315471925 0.0
0.765000000002 0.0459354754491 0.0
0.540000000001 0.025140348162 0.0
0.285000000001 0.0284012238039 0.0
1.00096363452 -1.17768482062e-05 0.0
1.00106889488 5.82558909331e-05 0.0
1.00090246395 0.000119822664426 0.0
1.00101400616 4.71251461533e-05 0.0
1.00061532191 4.77007427805e-05 0.0
0.999916053778 7.31504610979e-05 0.0
0.999885766792 -2.03221278236e-05 0.0
0.999355242168 -1.78549355569e-05 0.0
0.999978677258 -3.25446492497e-05 0.0
0.998581692298 -8.74149698673e-06 0.0
0.99856919242 4.44655619374e-05 0.0
0.999974263267 7.93477908036e-05 0.0
0.99453811305 2.10611267601e-05 0.0
0.995108770978 -3.81738032608e-05 0.0
1.06618472154 7.98886633461e-06 0.0
1.02773709853 0.0675110668959 0.0
0.999933900441 0.00226717921618 0.0
1.00006150011 0.0178342056194 0.0
1.26661366309 -0.254241799955 0.0
1.26055440142 0.257231895045 0.0
1.01961190163 -0.0872640143439 0.0
1.07968276514 -0.104634633946 0.0
1.07939467061 0.104499743529 0.0
1.00018634065 -0.0154318528127 0.0
1.70497783295 -0.178187607126 0.0
1.70500162251 0.178143547065 0.0
1.10852120675 0.0781042429802 0.0
0.996735624359 0.00575432864699 0.0
1.11304706847 -0.0815237441882 0.0
2.05252971079 -0.00267252183456 0.0
2.05198313709 0.00227811226084 0.0
1.00051646641 0.0101687916215 0.0
2.12490672115 0.0734294228032 0.0
0.981861814943 0.037972885258 0.0
0.970822363525 0.160645820474 0.0
0.998787017368 0.000605890405357 0.0
1.19548847252 -0.181866858643 0.0
1.1908368853 0.185516638385 0.0
0.997718154492 0.00223357764315 0.0
0.940128913889 -0.159924066169 0.0
1.504529421 -0.384853180821 0.0
1.52095502382 0.405807950794 0.0
0.990083936481 0.0110123992398 0.0
0.977956548446 -0.0377768774065 0.0
0.80532174712 0.0170197168618 0.0
0.805199941175 -0.0175751856554 0.0
1.09743537966 0.0237122142252 0.0
1.09672768046 -0.0234822047397 0.0
1.82536672093 0.100403749594 0.0
1.82528732755 -0.0998292902413 0.0
1.00456252247 0.00596402660424 0.0
0.947451138239 0.0598654365224 0.0
1.07302082214 -0.186829411518 0.0
1.11848385973 -0.479638755277 0.0
1.09631585209 0.435779157325 0.0
1.12524098304 0.150535419715 0.0
2.33720461357 -0.0899827894167 0.0
2.33710390476 0.0911669181062 0.0
1.12594958839 -0.0519960009113 0.0
1.12891642552 0.0516854065715 0.0
1.02026636085 0.0241418468825 0.0
0.995995957877 -0.288793219601 0.0
1.00395278615 0.275492553391 0.0
1.02462725059 -0.0286585769441 0.0
0.987704848516 -0.00348473033007 0.0
1.19662279516 0.107123334404 0.0
0.997810651777 0.000843889952968 0.0
0.997696387437 0.00280395556733 0.0
1.00113426036 0.000771211987282 0.0
1.07113108601 -0.0431575813831 0.0
0.979660080972 0.0142494284757 0.0
0.987155202705 0.0377028639353 0.0
1.13089367632 -0.176009804471 0.0
1.16171687725 -0.0951413709261 0.0
1.25907732382 0.106375264688 0.0
1.2574725235 -0.105489988455 0.0
1.07446712491 0.0434944790858 0.0
1.92367392518 -0.48358395271 0.0
1.92365174508 0.483469445713 0.0
0.987617380691 0.00434188612343 0.0
1.16199998632 0.0965466281036 0.0
2.39330029431 0.276308764762 0.0
2.39333204631 -0.27640442353 0.0
2.32029159651 -0.286027261383 0.0
2.2004445785 -0.395888342479 0.0
2.26021710689 0.405511073131 0.0
1.01656124798 0.017458854773 0.0
1.0092272329 -0.00229873772609 0.0
2.65253658963 -0.104183933343 0.0
2.61227398094 0.13427049139 0.0
0.999792021234 0.000781626943106 0.0
1.41006775548 0.0103376653646 0.0
1.40967456563 -0.0107129112999 0.0
1.3768208009 -0.50973780378 0.0
1.37656167075 0.509571982687 0.0
0.993019038864 0.000306829008084 0.0
0.940477015283 -0.0611184924447 0.0
1.23632775632 -0.152911246926 0.0
1.0116896477 0.0106772540415 0.0
1.644883664 0.219848964156 0.0
1.64534665197 -0.218246685641 0.0
2.53347279885 0.253729623083 0.0
1.64296978852 0.427952733223 0.0
1.64457776666 -0.428168458836 0.0
0.974288695885 -0.0125334269531 0.0
0.960431329614 0.024573935853 0.0
1.6742567605 -0.330883010428 0.0
1.62200725333 0.371976879801 0.0
1.00259499148 0.00236715465535 0.0
1.2611539504 0.174135288092 0.0
0.643753480315 -0.229171939577 0.0
0.632041545617 0.233423864342 0.0
1.06986647673 0.129328312444 0.0
1.11115455873 0.0610137630446 0.0
1.11121491948 -0.0600999646334 0.0
0.983041263754 0.00598672095572 0.0
1.38741832431 0.729887354469 0.0
1.0007458068 0.00467365035987 0.0
1.04907939756 0.273639439879 0.0
1.41878941015 0.159108158761 0.0
1.39587091505 -0.155196174663 0.0
0.998924126212 0.00141645805228 0.0
0.989569497837 0.000977371722584 0.0
0.992660755967 0.000442607526553 0.0
1.01517758252 -0.00974004574155 0.0
1.0077468446 0.0405187650573 0.0
0.980286739415 0.00521420972656 0.0
1.2350615703 0.172122960399 0.0
0.880323507123 0.0972074872262 0.0
0.811521860722 0.226376424536 0.0
1.82981730112 0.464379592542 0.0
1.6716550214 0.173276480807 0.0
1.82238838789 -0.441853113251 0.0
1.67112046255 -0.174796202076 0.0
0.936347376495 -0.371259727902 0.0
1.01133122646 0.00525005066486 0.0
0.996660478878 0.0107123603295 0.0
0.940742853427 0.261357891056 0.0
1.32809573143 -0.303198545389 0.0
0.990137230399 0.0223220919551 0.0
1.00734456643 -0.0435298196356 0.0
1.10128226564 -0.0478543120439 0.0
1.21308899786 -0.0580768701948 0.0
0.988900368035 0.0671498340595 0.0
1.19628819348 0.329442216016 0.0
1.04242000537 0.0378385817701 0.0
1.2383299574 -0.165365057593 0.0
1.10239379034 0.04746773072 0.0
1.06184829836 -0.104344003722 0.0
0.825437702208 0.570301897859 0.0
0.800234213753 -0.259273508954 0.0
1.00120150253 -0.169398261918 0.0
0.977661611655 0.183365392683 0.0
1.83445914329 0.067390077476 0.0
1.83630501295 -0.0684910445849 0.0
0.888611301458 -0.0281136861153 0.0
0.999245366724 0.000400970730123 0.0
1.50340786077 -0.696626157473 0.0
0.95922427986 -0.0200640350169 0.0
0.999742778408 -0.000536086564111 0.0
0.998673645651 0.00388858291917 0.0
1.00592667152 0.0143729925396 0.0
0.998964134154 0.00140692961239 0.0
0.829984450388 -0.555595629488 0.0
0.986951095296 0.00687459333726 0.0
0.906619776303 0.0260837214666 0.0
0.640233987391 0.115668653909 0.0
0.641996787058 -0.115859589607 0.0
1.06342069594 0.066489227466 0.0
0.886392712486 -0.0901658406098 0.0
1.11780311657 -0.346553307286 0.0
1.03701426301 -0.0496463876899 0.0
1.04613899066 -0.0227979089842 0.0
2.30706203047 -0.41163774491 0.0
2.30653228679 0.411483800571 0.0
1.00263524319 0.0101111108579 0.0
1.12048950203 -0.171057725158 0.0
1.10723422339 0.172791697877 0.0
1.00449228389 0.0420784683228 0.0
1.00307744136 -0.0467286634228 0.0
1.1262309429 -0.0804458960868 0.0
1.12682369885 0.08021298737 0.0
1.27010140359 0.00275427126727 0.0
0.999726797118 0.00732136574911 0.0
1.00436289362 0.00229669279623 0.0
0.931067147652 0.0330671174921 0.0
1.79502005586 0.086164815116 0.0
1.79482840004 -0.0862069420325 0.0
1.29898997149 0.386428025975 0.0
0.993548955244 0.00724911801058 0.0
1.04745802756 0.0447714012476 0.0
1.92307983669 0.157017878391 0.0
1.92302794598 -0.157017716737 0.0
0.984500696354 -0.0652289355919 0.0
0.609040845043 -0.0459626697515 0.0
0.607432464418 0.04693673859 0.0
0.983884209897 0.011518019988 0.0
1.22158199105 0.0588239823396 0.0
1.16730810029 0.0414660336771 0.0
1.01581890561 0.11037503543 0.0
0.840565671087 -0.428464620055 0.0
0.869203712141 0.440115801481 0.0
1.22437151218 -0.0534061608471 0.0
1.2034357407 -0.020131894106 0.0
1.00806629081 0.0236844822647 0.0
1.12878740494 -0.0585706277227 0.0
0.992132729975 -0.0215261201923 0.0
1.34296580218 -0.212606831535 0.0
1.34270989369 0.21240795093 0.0
1.15913130951 -0.0392287140923 0.0
0.945121900238 -0.00416063348394 0.0
2.77859736068 -0.265140841831 0.0
1.20371729398 -0.121900905611 0.0
1.00070196177 0.000436877940276 0.0
0.998566494152 0.000300255994501 0.0
1.21033960704 0.128471301302 0.0
1.00146782592 0.00178516257254 0.0
2.04801968164 -0.147286885261 0.0
2.03387389739 0.162379626126 0.0
0.950234712625 -0.000279422168893 0.0
1.20031900139 -0.194622546905 0.0
1.13327521836 0.0531775555114 0.0
1.23708089141 0.0363435652867 0.0
0.904133248142 -0.227630555313 0.0
0.891307547718 0.377168644643 0.0
0.861098502839 0.0665193403996 0.0
0.957951989311 0.000235689056444 0.0
0.996595336364 0.000351392155172 0.0
1.0697496256 0.0149931114858 0.0
1.57017853035 -0.0852367131659 0.0
1.57021515007 0.0852645909213 0.0
1.00329251917 0.0206244569919 0.0
1.01142878215 -0.0256058855444 0.0
1.56869202881 0.00727119067926 0.0
1.08164940367 -0.0688674067788 0.0
0.867114875707 0.205479497054 0.0
0.869761897186 -0.207571996643 0.0
0.971361000519 0.0943872351689 0.0
1.32191595441 -0.358919290367 0.0
0.964557297797 -0.0286930632806 0.0
1.00892837924 0.00509842996677 0.0
0.999050899988 0.00252555049329 0.0
1.00490117353 0.00290312628171 0.0
0.999717215431 0.00141420231364 0.0
1.29806077834 -0.155327428722 0.0
2.31768994097 0.654409672895 0.0
2.5867580708 -0.0648579253191 0.0
0.993180950974 0.0154702630048 0.0
2.58685871174 0.0649860347374 0.0
2.31759538424 -0.654569082914 0.0
1.03766204961 0.0176158052101 0.0
1.31195073628 0.156185608026 0.0
1.32297430156 -0.0886752501862 0.0
1.00182699184 0.000970013454727 0.0
2.7211174446 -0.485012379527 0.0
2.66658298844 0.556356638223 0.0
0.987370796356 0.000101418024244 0.0
0.999325504846 0.000955040371837 0.0
1.09092098659 -0.0245110216843 0.0
1.00081406625 0.000349326941808 0.0
1.11706687884 -0.0279899864545 0.0
0.996439858651 0.0323738128569 0.0
1.02076294757 0.0102396485852 0.0
2.16272385296 0.615248182762 0.0
1.11785861952 -0.467217250352 0.0
1.04722236246 -0.159409988153 0.0
0.993270138833 -0.0114129498344 0.0
1.1176427937 0.0292594803192 0.0
1.16326386092 0.293303368931 0.0
1.17028064817 -0.318663872026 0.0
1.26418913394 0.266211875221 0.0
0.994455088216 0.00444191951803 0.0
0.967972750147 0.00301652969516 0.0
1.05963843038 0.0250969727929 0.0
2.90196545771 0.12958421295 0.0
1.53904694702 -0.204482789657 0.0
1.53794690668 0.201348975196 0.0
1.09422980577 0.0251703421548 0.0
0.966411849338 -0.0964454438361 0.0
0.996618537473 0.00407263555735 0.0
0.877013102407 0.0468471330005 0.0
0.985042211386 0.00126347070549 0.0
0.974958265047 0.0246584427529 0.0
1.20292370064 0.200442164411 0.0
0.950660583573 0.00690454215129 0.0
1.02710609453 -0.0112231987104 0.0
0.971986508164 0.000596269551938 0.0
1.13524364402 -0.277274094485 0.0
1.15034085932 0.146020691154 0.0
1.74795095958 0.0943475774712 0.0
1.15813342899 -0.230953562036 0.0
1.74750835057 -0.0940603012987 0.0
1.56796265087 0.760817059851 0.0
0.998257324424 0.00165467754724 0.0
1.00774933694 -0.00836330493539 0.0
2.30456243387 -0.0439194808281 0.0
2.34019998385 0.107412964851 0.0
1.01429635686 -0.00329700135165 0.0
0.965617268636 0.0410861206873 0.0
1.3253499133 0.0830740171557 0.0
0.993386167633 0.0137430908702 0.0
1.07900728429 0.047573513128 0.0
0.881338283203 0.0165657774901 0.0
1.07911671169 -0.0492208746079 0.0
2.2499234825 -0.0768991232312 0.0
2.24985170745 0.0774609722549 0.0
2.09694288545 0.203153431865 0.0
2.0969044163 -0.203291524728 0.0
1.67735832747 -0.815910592791 0.0
1.67735943261 0.815878809526 0.0
1.298360442 -0.132709504617 0.0
0.909339119179 -0.00924465737739 0.0
1.01949169863 0.00740732169628 0.0
1.0009879342 0.00301936943121 0.0
0.962558204937 0.160959806958 0.0
0.961880612788 -0.161161778613 0.0
2.38876782373 -0.710499052355 0.0
0.998462833939 0.000980538379373 0.0
0.880053846345 -0.470272121015 0.0
0.879870957964 0.470238713697 0.0
1.01228229975 0.000898581696832 0.0
1.53872189337 -0.267574004726 0.0
1.53861774516 0.267374927011 0.0
0.983581908997 -0.694480013965 0.0
1.42105453837 0.279500674733 0.0
1.12602622666 0.182317172203 0.0
1.0478370532 -0.07100283025 0.0
1.11262082928 -0.0613891121693 0.0
0.824097765621 -0.0459057402216 0.0
0.986891086273 0.0156906535429 0.0
1.12637130956 0.11526611729 0.0
1.12647278553 -0.114432461379 0.0
0.808920662746 0.382107441439 0.0
0.992927474106 0.00156372906221 0.0
0.999719935932 0.00023285397828 0.0
1.00483159221 0.00389264599984 0.0
1.16541857515 0.141029584934 0.0
1.1671640628 -0.140760380402 0.0
0.342348425713 -0.216168142739 0.0
0.338435614411 0.219014027154 0.0
1.55382537636 0.297301849039 0.0
1.55332632382 -0.297867731089 0.0
1.11257157829 0.0615132816306 0.0
0.997055719124 0.00226738798175 0.0
1.08958937072 0.334176068411 0.0
1.09034331388 -0.334114591187 0.0
2.05080577089 -0.757813781025 0.0
1.99748311231 0.756032583322 0.0
2.21581732837 0.0100323607401 0.0
2.21598152736 -0.00990110516187 0.0
1.00284994876 0.00432532961 0.0
1.06002862465 0.410570618958 0.0
1.05845719548 -0.410524974331 0.0
1.01044419352 0.141364050094 0.0
1.01036383352 -0.144920931914 0.0
0.859765160383 0.0231966917021 0.0
0.998595486893 0.000445147063098 0.0
1.09157871425 0.0665203337847 0.0
1.80092421002 -0.213596576918 0.0
1.02413820634 0.0456624107363 0.0
1.7973788248 0.220062235021 0.0
1.15298898893 -0.0941897672251 0.0
0.982277227179 0.0725393189521 0.0
0.991469295356 0.00690067791652 0.0
1.75262276964 -0.0747466015794 0.0
1.75286073548 0.0746413907638 0.0