# vtk DataFile Version 2.0
2D Simulation Python
ASCII
DATASET UNSTRUCTURED_GRID
FIELD FieldData 1
NODES 1 2 int
2757 5098

POINTS 2757 double
0.0 1.0 0.0
1.85 1.0 0.0
2.15 1.0 0.0
2.5312 0.9845000000000002 0.0
2.804 0.8597000000000001 0.0
3.1897 0.7164000000000001 0.0
3.4784 0.6349999999999998 0.0
3.8514 0.5613000000000001 0.0
4.1492 0.5257999999999998 0.0
4.5167 0.5049000000000001 0.0
4.8167 0.5003000000000002 0.0
5.1833 0.5003000000000002 0.0
5.4833 0.5049000000000001 0.0
5.8508 0.5257999999999998 0.0
6.1486 0.5613000000000001 0.0
6.5216 0.6349999999999998 0.0
6.8103 0.7164000000000001 0.0
7.196 0.8597000000000001 0.0
7.4688 0.9845000000000002 0.0
7.85 1.0 0.0
8.15 1.0 0.0
10.0 1.0 0.0
2.0 0.8500000000000001 0.0
2.604294 0.7837869999999998 0.0
3.292593 0.5288279999999999 0.0
3.982247 0.3922810000000001 0.0
4.6644 0.3515969999999999 0.0
5.3356 0.3515969999999999 0.0
6.017753 0.3922810000000001 0.0
6.707407 0.5288279999999999 0.0
7.395706 0.7837869999999998 0.0
8.0 0.8500000000000001 0.0
0.0 0.0 0.0
10.0 0.0 0.0
0.09589869952291516 1.0 0.0
0.1888147635033504 1.0 0.0
0.2788409054415558 1.0 0.0
0.3660670333996566 1.0 0.0
0.4505802302878947 1.0 0.0
0.5324648790931192 1.0 0.0
0.6118027156217198 1.0 0.0
0.6886729728356462 1.0 0.0
0.7631523848471844 1.0 0.0
0.8353153174851218 1.0 0.0
0.9052338217649879 1.0 0.0
0.9729776980408794 1.0 0.0
1.038614580849525 1.0 0.0
1.102210010843471 1.0 0.0
1.163827479442682 1.0 0.0
1.223528508355988 1.0 0.0
1.281372692526642 1.0 0.0
1.337417785230084 1.0 0.0
1.391719743967992 1.0 0.0
1.444332799787133 1.0 0.0
1.495309459666087 1.0 0.0
1.544700643890327 1.0 0.0
1.592555642113107 1.0 0.0
1.638922222094626 1.0 0.0
1.683846722920012 1.0 0.0
1.727373960837219 1.0 0.0
1.769547395111623 1.0 0.0
1.810409141995569 1.0 0.0
2.188119999999948 0.9984500000000022 0.0
2.226239999999895 0.9969000000000042 0.0
2.264359999999671 0.9953500000000134 0.0
2.302479999999619 0.9938000000000156 0.0
2.340599999999567 0.9922500000000177 0.0
2.378719999999689 0.9907000000000128 0.0
2.416839999999636 0.989150000000015 0.0
2.454959999999585 0.987600000000017 0.0
2.493079999999706 0.9860500000000121 0.0
2.839063636363584 0.8466727272727468 0.0
2.874127272727092 0.8336454545455219 0.0
2.909190909090677 0.8206181818182683 0.0
2.944254545454222 0.8075909090910295 0.0
2.97931818181763 0.7945636363638415 0.0
3.014381818181257 0.7815363636365724 0.0
3.049445454545112 0.7685090909092184 0.0
3.084509090908891 0.7554818181818926 0.0
3.119572727272518 0.7424545454546234 0.0
3.154636363636221 0.729427272727326 0.0
3.515699999999767 0.6276300000000459 0.0
3.552999999999703 0.6202600000000585 0.0
3.59029999999978 0.6128900000000433 0.0
3.627599999999699 0.6055200000000595 0.0
3.664899999999474 0.5981500000001038 0.0
3.702199999999584 0.5907800000000822 0.0
3.739499999999687 0.5834100000000619 0.0
3.776799999999796 0.5760400000000403 0.0
3.814099999999899 0.56867000000002 0.0
4.185950000000035 0.5237099999999979 0.0
4.22269999999962 0.5216200000000215 0.0
4.259449999999689 0.5195300000000176 0.0
4.296199999999274 0.5174400000000412 0.0
4.332949999999307 0.5153500000000395 0.0
4.369699999999686 0.5132600000000178 0.0
4.406449999999271 0.5111700000000414 0.0
4.443200000000032 0.5090799999999982 0.0
4.47994999999962 0.5069900000000217 0.0
4.85335999999993 0.5003000000000002 0.0
4.890019999999688 0.5003000000000002 0.0
4.926679999999445 0.5003000000000002 0.0
4.963339999999202 0.5003000000000002 0.0
4.99999999999948 0.5003000000000002 0.0
5.036659999999757 0.5003000000000002 0.0
5.073319999999861 0.5003000000000002 0.0
5.109979999999966 0.5003000000000002 0.0
5.14664000000007 0.5003000000000002 0.0
5.520050000000034 0.506990000000002 0.0
5.556799999999619 0.5090799999999784 0.0
5.593549999999689 0.5111699999999824 0.0
5.630299999999274 0.5132599999999587 0.0
5.667049999999306 0.5153499999999605 0.0
5.703799999999686 0.5174399999999821 0.0
5.740549999999271 0.5195299999999585 0.0
5.777300000000031 0.5216200000000017 0.0
5.814049999999619 0.5237099999999782 0.0
6.185899999999967 0.5686699999999937 0.0
6.223200000000103 0.5760400000000205 0.0
6.26049999999988 0.5834099999999763 0.0
6.297799999999683 0.5907799999999372 0.0
6.335099999999809 0.5981499999999621 0.0
6.372399999999617 0.6055199999999242 0.0
6.409700000000087 0.6128900000000171 0.0
6.446999999999897 0.6202599999999795 0.0
6.484300000000033 0.6276300000000062 0.0
6.845363636363626 0.7294272727272689 0.0
6.880427272727252 0.7424545454545377 0.0
6.915490909090877 0.7554818181818067 0.0
6.950554545454437 0.7685090909090506 0.0
6.985618181818142 0.7815363636363493 0.0
7.020681818181658 0.7945636363635772 0.0
7.055745454545396 0.8075909090908875 0.0
7.090809090908994 0.8206181818181463 0.0
7.125872727272663 0.8336454545454308 0.0
7.160936363636331 0.8466727272727155 0.0
7.50692 0.9860500000000001 0.0
7.545039999999653 0.987599999999986 0.0
7.583159999999308 0.989149999999972 0.0
7.621279999999653 0.990699999999986 0.0
7.659399999999653 0.992249999999986 0.0
7.697519999999654 0.993799999999986 0.0
7.735639999999999 0.9953500000000001 0.0
7.773759999999654 0.9968999999999859 0.0
7.811879999999999 0.99845 0.0
8.189361702128089 1.0 0.0
8.228723404256021 1.0 0.0
8.268085106383511 1.0 0.0
8.307446808511347 1.0 0.0
8.346808510638837 1.0 0.0
8.386170212766556 1.0 0.0
8.425531914894163 1.0 0.0
8.464893617021728 1.0 0.0
8.504255319149491 1.0 0.0
8.543617021276981 1.0 0.0
8.582978723404818 1.0 0.0
8.622340425532308 1.0 0.0
8.661702127660144 1.0 0.0
8.701063829787634 1.0 0.0
8.740425531915472 1.0 0.0
8.779787234042962 1.0 0.0
8.819148936170695 1.0 0.0
8.858510638298288 1.0 0.0
8.897872340425867 1.0 0.0
8.937234042553614 1.0 0.0
8.976595744681104 1.0 0.0
9.01595744680894 1.0 0.0
9.05531914893643 1.0 0.0
9.094680851064266 1.0 0.0
9.134042553191756 1.0 0.0
9.173404255319593 1.0 0.0
9.212765957447777 1.0 0.0
9.252127659575525 1.0 0.0
9.291489361703103 1.0 0.0
9.330851063830696 1.0 0.0
9.37021276595843 1.0 0.0
9.40957446808592 1.0 0.0
9.448936170213758 1.0 0.0
9.488297872341246 1.0 0.0
9.527659574469084 1.0 0.0
9.567021276596574 1.0 0.0
9.60638297872441 1.0 0.0
9.6457446808519 1.0 0.0
9.685106382979662 1.0 0.0
9.724468085107226 1.0 0.0
9.763829787234833 1.0 0.0
9.803191489362552 1.0 0.0
9.842553191490042 1.0 0.0
9.881914893617878 1.0 0.0
9.921276595745368 1.0 0.0
9.960638297872762 1.0 0.0
1.85511112605661 0.9611771432347338 0.0
1.87009618943224 0.9250000000001632 0.0
1.89393398282189 0.8939339828221454 0.0
1.924999999999842 0.8700961894324258 0.0
1.96117714323457 0.8551111260566537 0.0
2.51911222351653 0.9468943483281596 0.0
2.517261556501524 0.9074371004566797 0.0
2.525776366502026 0.8688651237292935 0.0
2.544066041990905 0.8338538805560812 0.0
2.570861958867948 0.8048318507040559 0.0
3.183399471121889 0.6773269167743563 0.0
3.187540640753236 0.6379663627768488 0.0
3.201835045303677 0.6010600964327384 0.0
3.225286972057683 0.569178916585472 0.0
3.256262818048977 0.5445435870349058 0.0
3.851311808445927 0.5217631357369752 0.0
3.861560068046178 0.4835774762734121 0.0
3.881432344049533 0.449397598275363 0.0
3.909547162863183 0.4215996059626037 0.0
3.94395004882614 0.4021159499676259 0.0
4.520996695771619 0.4658028333951991 0.0
4.53530678067777 0.4291658097571295 0.0
4.558646801051933 0.3975067908214496 0.0
4.589412725279813 0.3730015273561684 0.0
4.625490180094372 0.3573341317450809 0.0
5.188792203110742 0.4613608817416055 0.0
5.204215644069836 0.4251871800409458 0.0
5.228510353354086 0.3942649174043062 0.0
5.260006687237601 0.3707192133874752 0.0
5.296540073359643 0.3561682366420743 0.0
5.860011021539801 0.4873401270919612 0.0
5.878953813569356 0.4526244912484382 0.0
5.906311508814615 0.4240664581795365 0.0
5.94018225175748 0.4036513286316637 0.0
5.978211412052326 0.3927983240146977 0.0
6.536647498529492 0.5983695458969855 0.0
6.560754133038625 0.5669515963705687 0.0
6.592240694919373 0.5429346481718567 0.0
6.628913908052386 0.5279916625832858 0.0
6.668219207005813 0.523163531066366 0.0
7.216556713460987 0.8259527451430548 0.0
7.245211027874307 0.7987427112527251 0.0
7.279975409646859 0.7799572530799906 0.0
7.318438515914653 0.7708993761205898 0.0
7.357932451203028 0.7721973569569427 0.0
7.855111126056608 0.9611771432347389 0.0
7.87009618943239 0.9249999999999031 0.0
7.893933982821849 0.893933982822186 0.0
7.924999999999724 0.870096189432493 0.0
7.961177143234544 0.8551111260566602 0.0
2.038822856765458 0.8551111260566613 0.0
2.074999999999886 0.8700961894322686 0.0
2.106066017177859 0.8939339828218953 0.0
2.129903810567719 0.9250000000000924 0.0
2.144888873943354 0.9611771432345996 0.0
2.642072213105018 0.7722253821844589 0.0
2.68155866996913 0.7709276471286509 0.0
2.720014493007171 0.7799838089221203 0.0
2.754772291926727 0.7987657099507169 0.0
2.783421180466018 0.8259705914503371 0.0
3.331781228837649 0.5232065749202437 0.0
3.371075251522289 0.5280333212977997 0.0
3.407737943504146 0.5429720199040406 0.0
3.439215472227839 0.5669820778975886 0.0
3.463315190802363 0.5983910139513634 0.0
4.021785797379926 0.3928173305182819 0.0
4.059810087100174 0.4036689451393993 0.0
4.093676492056691 0.424081460024671 0.0
4.121030683473297 0.4526358355315954 0.0
4.139971049410406 0.4873470251801275 0.0
4.703463602180634 0.3561536952559329 0.0
4.740000641190358 0.3707061269192393 0.0
4.771500124319702 0.3942541852163063 0.0
4.795797262775971 0.4251795396981159 0.0
4.811222245889969 0.4613568583244396 0.0
5.37450551763444 0.3573491929815369 0.0
5.410579205991976 0.3730149529290054 0.0
5.44134191828321 0.3975176580649515 0.0
5.464679501979187 0.429173371825681 0.0
5.478988092924676 0.4658065705894096 0.0
6.056057512867302 0.4020971861494807 0.0
6.090465040120479 0.4215834706823507 0.0
6.118583651902696 0.4493852132201999 0.0
6.138458608873377 0.4835697024226929 0.0
6.14870825106575 0.521760513510746 0.0
6.743759676449819 0.5445060199603367 0.0
6.774744567243897 0.569148542912274 0.0
6.798203341851458 0.6010390319154575 0.0
6.812501920301792 0.6379560747176215 0.0
6.816644299135661 0.6773281218144781 0.0
[...]
POINT_DATA 2757
VECTORS vector double
0.0 0.0 0.0
0.0 0.0 0.0
0.0 0.0 0.0
0.0 0.0 0.0
0.0 0.0 0.0
0.0 0.0 0.0
0.0 0.0 0.0
0.0 0.0 0.0
0.0 0.0 0.0
0.0 0.0 0.0
0.0 0.0 0.0
0.0 0.0 0.0
0.0 0.0 0.0
0.0 0.0 0.0
0.0 0.0 0.0
0.0 0.0 0.0
0.0 0.0 0.0
0.0 0.0 0.0
0.0 0.0 0.0
0.0 0.0 0.0
0.0 0.0 0.0
0.0 0.0 0.0
0.0 0.0 0.0
0.0 0.0 0.0
0.0 0.0 0.0
0.0 0.0 0.0
0.0 0.0 0.0
0.0 0.0 0.0
0.0 0.0 0.0
0.0 0.0 0.0
0.0 0.0 0.0
0.0 0.0 0.0
1.5 -0.00321857616479 0.0
1.07486050921 -1.25896360374e-06 0.0
0.0 0.0 0.0
0.0 0.0 0.0
0.0 0.0 0.0
0.0 0.0 0.0
0.0 0.0 0.0
0.0 0.0 0.0
0.0 0.0 0.0
0.0 0.0 0.0
0.0 0.0 0.0
0.0 0.0 0.0
0.0 0.0 0.0
0.0 0.0 0.0
0.0 0.0 0.0
0.0 0.0 0.0
0.0 0.0 0.0
0.0 0.0 0.0
0.0 0.0 0.0
0.0 0.0 0.0
0.0 0.0 0.0
0.0 0.0 0.0
0.0 0.0 0.0
0.0 0.0 0.0
0.0 0.0 0.0
0.0 0.0 0.0
0.0 0.0 0.0
0.0 0.0 0.0
0.0 0.0 0.0
0.0 0.0 0.0
0.0 0.0 0.0
0.0 0.0 0.0
0.0 0.0 0.0
0.0 0.0 0.0
0.0 0.0 0.0
0.0 0.0 0.0
0.0 0.0 0.0
0.0 0.0 0.0
0.0 0.0 0.0
0.0 0.0 0.0
0.0 0.0 0.0
0.0 0.0 0.0
0.0 0.0 0.0
0.0 0.0 0.0
0.0 0.0 0.0
0.0 0.0 0.0
0.0 0.0 0.0
0.0 0.0 0.0
0.0 0.0 0.0
0.0 0.0 0.0
0.0 0.0 0.0
0.0 0.0 0.0
0.0 0.0 0.0
0.0 0.0 0.0
0.0 0.0 0.0
0.0 0.0 0.0
0.0 0.0 0.0
0.0 0.0 0.0
0.0 0.0 0.0
0.0 0.0 0.0
0.0 0.0 0.0
0.0 0.0 0.0
0.0 0.0 0.0
0.0 0.0 0.0
0.0 0.0 0.0
0.0 0.0 0.0
0.0 0.0 0.0
0.0 0.0 0.0
0.0 0.0 0.0
0.0 0.0 0.0
0.0 0.0 0.0
0.0 0.0 0.0
0.0 0.0 0.0
0.0 0.0 0.0
0.0 0.0 0.0
0.0 0.0 0.0
0.0 0.0 0.0
0.0 0.0 0.0
0.0 0.0 0.0
0.0 0.0 0.0
0.0 0.0 0.0
0.0 0.0 0.0
0.0 0.0 0.0
0.0 0.0 0.0
0.0 0.0 0.0
0.0 0.0 0.0
0.0 0.0 0.0
0.0 0.0 0.0
0.0 0.0 0.0
0.0 0.0 0.0
0.0 0.0 0.0
0.0 0.0 0.0
0.0 0.0 0.0
0.0 0.0 0.0
0.0 0.0 0.0
0.0 0.0 0.0
0.0 0.0 0.0
0.0 0.0 0.0
0.0 0.0 0.0
0.0 0.0 0.0
0.0 0.0 0.0
0.0 0.0 0.0
0.0 0.0 0.0
0.0 0.0 0.0
0.0 0.0 0.0
0.0 0.0 0.0
0.0 0.0 0.0
0.0 0.0 0.0
0.0 0.0 0.0
0.0 0.0 0.0
0.0 0.0 0.0
0.0 0.0 0.0
0.0 0.0 0.0
0.0 0.0 0.0
0.0 0.0 0.0
0.0 0.0 0.0
0.0 0.0 0.0
0.0 0.0 0.0
0.0 0.0 0.0
0.0 0.0 0.0
0.0 0.0 0.0
0.0 0.0 0.0
0.0 0.0 0.0
0.0 0.0 0.0
0.0 0.0 0.0
0.0 0.0 0.0
0.0 0.0 0.0
0.0 0.0 0.0
0.0 0.0 0.0
0.0 0.0 0.0
0.0 0.0 0.0
0.0 0.0 0.0
0.0 0.0 0.0
0.0 0.0 0.0
0.0 0.0 0.0
0.0 0.0 0.0
0.0 0.0 0.0
0.0 0.0 0.0
0.0 0.0 0.0
0.0 0.0 0.0
0.0 0.0 0.0
0.0 0.0 0.0
0.0 0.0 0.0
0.0 0.0 0.0
0.0 0.0 0.0
0.0 0.0 0.0
0.0 0.0 0.0
0.0 0.0 0.0
0.0 0.0 0.0
0.0 0.0 0.0
0.0 0.0 0.0
0.0 0.0 0.0
0.0 0.0 0.0
0.0 0.0 0.0
0.0 0.0 0.0
0.0 0.0 0.0
0.0 0.0 0.0
0.0 0.0 0.0
0.0 0.0 0.0
0.0 0.0 0.0
0.0 0.0 0.0
0.0 0.0 0.0
0.0 0.0 0.0
0.0 0.0 0.0
0.0 0.0 0.0
0.0 0.0 0.0
0.0 0.0 0.0
0.0 0.0 0.0
0.0 0.0 0.0
0.0 0.0 0.0
0.0 0.0 0.0
0.0 0.0 0.0
0.0 0.0 0.0
0.0 0.0 0.0
0.0 0.0 0.0
0.0 0.0 0.0
0.0 0.0 0.0
0.0 0.0 0.0
0.0 0.0 0.0
0.0 0.0 0.0
0.0 0.0 0.0
0.0 0.0 0.0
0.0 0.0 0.0
0.0 0.0 0.0
0.0 0.0 0.0
0.0 0.0 0.0
0.0 0.0 0.0
0.0 0.0 0.0
0.0 0.0 0.0
0.0 0.0 0.0
0.0 0.0 0.0
0.0 0.0 0.0
0.0 0.0 0.0
0.0 0.0 0.0
0.0 0.0 0.0
0.0 0.0 0.0
0.0 0.0 0.0
0.0 0.0 0.0
0.0 0.0 0.0
0.0 0.0 0.0
0.0 0.0 0.0
0.0 0.0 0.0
0.0 0.0 0.0
0.0 0.0 0.0
0.0 0.0 0.0
0.0 0.0 0.0
0.0 0.0 0.0
0.0 0.0 0.0
0.0 0.0 0.0
0.0 0.0 0.0
0.0 0.0 0.0
0.0 0.0 0.0
0.0 0.0 0.0
0.0 0.0 0.0
0.0 0.0 0.0
0.0 0.0 0.0
0.0 0.0 0.0
0.0 0.0 0.0
0.0 0.0 0.0
0.0 0.0 0.0
0.0 0.0 0.0
0.0 0.0 0.0
0.0 0.0 0.0
0.0 0.0 0.0
0.0 0.0 0.0
0.0 0.0 0.0
0.0 0.0 0.0
0.0 0.0 0.0
0.0 0.0 0.0
0.0 0.0 0.0
0.0 0.0 0.0
0.0 0.0 0.0
0.0 0.0 0.0
0.0 0.0 0.0
0.0 0.0 0.0
0.0 0.0 0.0
0.0 0.0 0.0
0.0 0.0 0.0
0.0 0.0 0.0
0.0 0.0 0.0
0.0 0.0 0.0
0.0 0.0 0.0
0.0 0.0 0.0
0.0 0.0 0.0
0.0 0.0 0.0
0.0 0.0 0.0
0.0 0.0 0.0
0.0 0.0 0.0
0.0 0.0 0.0
0.0 0.0 0.0
0.0 0.0 0.0
0.0 0.0 0.0
0.0 0.0 0.0
0.0 0.0 0.0
0.0 0.0 0.0
0.0 0.0 0.0
0.0 0.0 0.0
0.0 0.0 0.0
0.0 0.0 0.0
1.43268689477 -0.00199965154963 0.0
1.39236429922 -0.0022017771727 0.0
1.358587988 -0.00339589589985 0.0
1.29004744678 0.0091530490335 0.0
1.24147971008 -0.0163843572624 0.0
1.20079653193 0.00763026990233 0.0
1.16143606529 -0.00222108879118 0.0
1.14517158438 -0.000116666328736 0.0
1.12694533493 0.00158177452768 0.0
1.11595063981 -0.00141984560626 0.0
1.11148406827 -9.16944323336e-05 0.0
1.11040224019 0.000474400143433 0.0
1.11327326377 -0.000250854329071 0.0
1.11722015498 0.000313954632585 0.0
1.12599985699 0.00130080105375 0.0
1.13407046316 -0.000349100669114 0.0
1.14595611362 0.000482234349016 0.0
1.16216261229 -0.00136725539695 0.0
1.18085191893 0.000572876197122 0.0
1.19623729509 0.000819639032417 0.0
1.21645063709 -0.00219104042776 0.0
1.24125854651 0.00201392224547 0.0
1.25976438252 0.000434403261431 0.0
1.29222163044 -0.00332770783975 0.0
1.33227081205 0.000347890653658 0.0
1.36461081091 0.00276962075642 0.0
1.41368251692 0.00678138508069 0.0
1.46794937368 -0.00759816795422 0.0
1.54565814567 0.00597684354064 0.0
1.62308191635 -0.00741535483184 0.0
1.72957286608 -0.00762876005751 0.0
1.82277423086 0.00593302735083 0.0
1.90656031488 0.00649317876541 0.0
1.98755899252 -0.00766134550966 0.0
2.08345258686 -0.00556630761434 0.0
2.17127047643 0.00329768352781 0.0
2.27108108541 0.0035807835864 0.0
2.37349385358 -0.00251663587733 0.0
2.49306640093 0.00181210900491 0.0
2.58562576836 0.00205573082514 0.0
2.65651307447 -0.00446621374396 0.0
2.70168511948 0.00291255691351 0.0
2.74818153812 -0.00215498693199 0.0
2.82512736 0.00616351271417 0.0
2.89363545982 0.000159137671404 0.0
2.98194218227 -0.00617947755241 0.0
3.02422105237 0.000629946204409 0.0
3.0118473948 0.000676757057347 0.0
2.98581835335 0.00247299277077 0.0
2.97372679029 -0.00399883840444 0.0
2.99779665717 -0.00215559491692 0.0
3.0436820093 -0.00138637581111 0.0
3.06139960501 -0.000402582097426 0.0
3.03031235868 0.00439676344963 0.0
2.96576232284 -0.0012179983874 0.0
2.91278455429 -0.00339455112215 0.0
2.8395443491 0.00266253676951 0.0
2.79595387266 -0.00306756343575 0.0
2.75630094757 0.00377388928352 0.0
2.68498002827 -0.00151252761848 0.0
2.58979413857 -0.00198363408352 0.0
2.47022166206 0.0011803584361 0.0
2.36476961737 -0.00262287334446 0.0
2.25572694978 -0.00346121859515 0.0
2.15714840603 0.00603806628366 0.0
2.05081867831 0.00813322732964 0.0
1.96491099546 -0.00695142405814 0.0
1.88098085786 -0.00604276820677 0.0
1.78769618519 0.00814477113733 0.0
1.68268783873 0.00358474334172 0.0
1.5786670453 0.0135748515026 0.0
1.51526105288 -0.0262032253971 0.0
1.45908704295 0.0143656403712 0.0
1.38237342795 -0.00221849899844 0.0
1.35262429015 -0.00416760010238 0.0
1.30562577472 0.00223146343015 0.0
1.269423035 -8.49653218662e-06 0.0
1.24995882668 -0.00223970165401 0.0
1.22361107872 0.0025130654665 0.0
1.20153916027 -0.000567444721019 0.0
1.18353094854 0.000471525293113 0.0
1.1679993051 -0.00132318787304 0.0
1.15010040525 -0.00133410724285 0.0
1.13905815081 0.000333807364626 0.0
1.12572297939 -0.000503717002821 0.0
1.11237221717 0.000167666922181 0.0
1.1046761275 -0.000545228526806 0.0
1.09672092577 0.000185060452903 0.0
1.09179323195 -0.000591915317813 0.0
1.08621358228 0.000407031767597 0.0
1.08246333656 -0.000105654698628 0.0
1.08007687703 -2.81384936947e-05 0.0
1.07832130446 8.45473121654e-05 0.0
1.07691833763 -5.84096254241e-05 0.0
1.07609948123 -4.77507156227e-05 0.0
1.07559669595 2.86782462695e-05 0.0
1.07525727697 -4.4410096061e-05 0.0
1.07503080944 5.16219927689e-06 0.0
1.07493209458 2.1748542143e-06 0.0
1.485 0.00291070928737 0.0
1.44 0.00176803628971 0.0
1.365 -0.00260104527168 0.0
1.26 0.00429676508951 0.0
1.125 0.0224917943199 0.0
0.960000000002 0.0138762776666 0.0
0.765000000002 0.0108859912143 0.0
0.540000000001 -0.00859746623441 0.0
0.285000000001 -0.0356755039945 0.0
1.07481658684 2.21386974055e-05 0.0
1.07477135789 2.68305854486e-05 0.0
1.074664573 4.56281126493e-05 0.0
1.07458152342 3.63897832524e-05 0.0
1.0744054227 2.78518366284e-05 0.0
1.07424236553 2.79127746289e-05 0.0
1.07423796302 1.03823442197e-05 0.0
1.07428019533 -3.6279562963e-05 0.0
1.07342984962 8.87907312946e-05 0.0
1.06919257393 0.00101227875086 0.0
1.05515392612 0.0040820159584 0.0
1.02481541616 0.00985488413155 0.0
0.946342798596 0.00998702545275 0.0
0.734590758867 0.0289404736138 0.0
0.346988562213 0.0272690708079 0.0
1.1117478731 0.0846834016739 0.0
1.07356386336 0.00175927362009 0.0
1.07024190802 0.0198186498695 0.0
1.38400838902 -0.273401962734 0.0
1.40621334931 0.368050063768 0.0
1.08616156419 -0.0880684071171 0.0
1.17120496886 -0.0894089339263 0.0
1.16442647959 0.143962050649 0.0
1.0691220774 0.00201477829474 0.0
2.00359925046 -0.239919783312 0.0
2.03829762016 0.332193397599 0.0
1.19438834682 0.0766062940896 0.0
1.06894396198 0.00460802622332 0.0
1.19166067245 -0.104148121413 0.0
2.55123391385 0.118425910004 0.0
2.56439188108 -0.0263118614194 0.0
1.06494018871 0.107248889072 0.0
2.70082161412 0.143343224525 0.0
1.03934874808 0.0473392898617 0.0
1.04801366797 0.22231093797 0.0
1.06726201846 -0.000647618104083 0.0
1.27023600558 -0.211123770816 0.0
1.28003277312 0.20562334094 0.0
1.06504199116 0.00091812058508 0.0
0.965850939553 -0.146420514688 0.0
1.60275453977 -0.419406510801 0.0
1.72502988085 0.431892553474 0.0
1.05105608808 0.00684964502213 0.0
1.04033548293 -0.0311620541531 0.0
0.704517669567 0.116868702768 0.0
0.748997874051 0.091430282761 0.0
1.20864585844 -0.00273045922514 0.0
1.11337246459 -0.00196656894985 0.0
2.02188194725 0.239488590772 0.0
2.01834287399 -0.22910619503 0.0
1.07746479259 0.00628063436125 0.0
0.953753291805 0.0902231904491 0.0
1.12822109701 -0.173157429108 0.0
1.14512431595 -0.452843270314 0.0
1.11572543656 0.54045608466 0.0
1.06764120552 0.283241584806 0.0
2.76185014862 0.0536890536193 0.0
2.69805373294 -0.0783843384329 0.0
1.21503115691 -0.057692814817 0.0
1.22048971688 0.0616195907108 0.0
1.09537350834 0.0287692333928 0.0
0.983292436672 -0.242429026918 0.0
1.08357816129 0.296373171795 0.0
1.10094890409 -0.0235901246156 0.0
1.03792569289 0.0230708499538 0.0
1.25409665327 0.0608034590299 0.0
1.02659175228 -0.00491412618525 0.0
1.01981126324 0.00288612600909 0.0
1.0746568068 0.000587102014355 0.0
1.15012047303 -0.0467550304162 0.0
0.991019835772 0.00870891727367 0.0
0.967522568931 0.177224810675 0.0
1.17028495868 -0.206662590417 0.0
1.25010003287 -0.103086789846 0.0
1.38137570688 0.136716412197 0.0
1.36040622659 -0.119775110522 0.0
1.1615607438 0.0488725735465 0.0
2.18220031035 -0.447592248955 0.0
2.3591982196 0.418005046191 0.0
1.00121013799 0.00663732171463 0.0
1.26108938938 0.119479961574 0.0
2.67010329465 0.296667511109 0.0
2.63246009098 -0.317392126746 0.0
2.79449173683 -0.196889437375 0.0
2.62797922574 -0.356630460433 0.0
2.86857571326 0.180212572027 0.0
1.17269938385 0.171027968097 0.0
1.10362918562 0.0313723963933 0.0
3.05643012979 -0.0945126673986 0.0
3.04931126061 0.104943902867 0.0
1.07389567862 0.000441452676292 0.0
1.21091499501 -0.0546101667219 0.0
1.03019280502 0.219943168877 0.0
1.10271867105 -0.229013095066 0.0
0.869172241758 0.316897951 0.0
0.989665480836 -0.0044968624893 0.0
0.981834679053 -0.0569131560834 0.0
1.31727006378 -0.232633362901 0.0
1.08521304366 0.0122434060307 0.0
1.04896743208 0.0805825868105 0.0
1.03611339444 0.045964640788 0.0
3.02935540084 0.0585256493474 0.0
0.795100586629 0.320233912897 0.0
1.08546054295 -0.148308669158 0.0
1.02229508661 -0.00236138711045 0.0
0.930201045886 0.0240714972218 0.0
1.02504180552 -0.0821906137636 0.0
0.616209483249 0.176059547121 0.0
1.07586728826 0.00229374988105 0.0
1.26094565861 0.186839707673 0.0
0.476621650597 -0.100728857584 0.0
0.327399258906 0.183663882264 0.0
1.17711941295 0.136828803574 0.0
1.18744642537 0.0748602233132 0.0
1.20750658 -0.0720780427749 0.0
0.984492517142 0.0635534288469 0.0
1.45582754017 0.597033783846 0.0
1.07377408732 0.00419450691702 0.0
1.10205675061 0.236082872909 0.0
1.59791248576 0.197527131568 0.0
1.51617008722 -0.172899840859 0.0
1.0727422682 0.000912191489333 0.0
0.908189479131 0.00147301298608 0.0
0.902969574774 -0.00527792086769 0.0
1.09915449918 0.00338775401585 0.0
1.07914299036 0.0519562853117 0.0
0.914259871306 -0.00366531996016 0.0
1.32624048124 0.237950065046 0.0
0.753263995831 0.166197473639 0.0
0.49592695335 0.196079943058 0.0
1.9338936804 0.454847718969 0.0
1.87515253744 0.215208320225 0.0
1.91465783957 -0.517294332743 0.0
1.81885684268 -0.222312283855 0.0
0.780526056449 -0.241509880245 0.0
1.13924207253 0.0705997661011 0.0
1.06824744087 0.0100168346462 0.0
0.593210080765 0.307874690529 0.0
1.24345460121 -0.339004207785 0.0
1.05581726315 0.0240643526813 0.0
1.07643688174 -0.0378653927313 0.0
1.18458761229 -0.054805228899 0.0
1.26107957602 -0.124853113724 0.0
1.05439708556 0.0949481319342 0.0
1.22452950953 0.271215323016 0.0
1.12335321903 0.0451942694496 0.0
1.34168752022 -0.200358318387 0.0
1.19078750428 0.0526457662081 0.0
1.12698614942 -0.113992812382 0.0
0.308801750416 0.190657741454 0.0
0.638177868803 -0.171555763708 0.0
0.90984137331 -0.138313729032 0.0
0.897189613586 0.127534793669 0.0
1.96271317612 -0.155114903861 0.0
1.86676943325 0.145387800199 0.0
0.460509060693 -0.036832707377 0.0
1.07339353511 -0.000214612625073 0.0
1.52609744456 -0.687754956292 0.0
0.963367163955 -0.0192925381611 0.0
1.06553978121 0.0472887751975 0.0
1.07182438914 0.00289195327414 0.0
0.90351723254 0.111547128722 0.0
0.875321245627 -0.00805360590041 0.0
0.624463487978 -0.3421536104 0.0
0.838501048624 0.00466456609505 0.0
0.519928630227 0.098549654923 0.0
0.266308387021 0.107997227507 0.0
0.376534353673 -0.0263720733455 0.0
1.15202660404 0.073754840774 0.0
0.709235927103 -0.0651359361299 0.0
1.02050714781 -0.302761147758 0.0
1.10932626566 -0.0504156690566 0.0
1.12456448267 -0.0215890130915 0.0
2.23949743181 -0.0679526383128 0.0
2.38965941778 -0.0498491970724 0.0
1.0750070201 0.0105675361767 0.0
1.18858531826 -0.169474348224 0.0
1.21228377102 0.201811540287 0.0
1.04063876704 0.108440940409 0.0
1.0997788637 0.00177336348408 0.0
1.2175013707 -0.0845655965823 0.0
1.21777397864 0.100070049956 0.0
1.21839293023 -0.0542590808742 0.0
1.07199076662 0.00704159574974 0.0
0.824192184627 0.0160321148782 0.0
0.775194801024 0.0303053467372 0.0
2.10653695535 0.159676099368 0.0
2.03865788942 -0.135762874245 0.0
1.50023392373 0.473449894885 0.0
1.06364607759 0.00543215155146 0.0
1.09791908179 0.133003410555 0.0
2.33155617957 0.181812947671 0.0
2.2202825612 -0.167830613663 0.0
1.04856621917 -0.0603768544023 0.0
0.26276784808 0.0517935924722 0.0
0.252305623086 0.0931548568883 0.0
0.733597747355 0.00493139730678 0.0
1.33785081985 0.0732069073873 0.0
1.2715609289 0.0500747652258 0.0
1.11110214066 0.143418639937 0.0
0.72333753261 -0.313579780987 0.0
0.731072018626 0.300195118248 0.0
1.32277336195 -0.0594104277802 0.0
1.12580995386 -0.127072850688 0.0
1.0795363829 0.0283440191774 0.0
1.22644411944 -0.0891252283421 0.0
1.05601556867 -0.00931610598272 0.0
0.920211119505 -0.0529032144901 0.0
0.679393321801 0.21645214791 0.0
1.25085337935 -0.0415958615375 0.0
0.943934931072 -0.00914496131573 0.0
2.9890060047 -0.107429204633 0.0
1.29312138075 -0.138727898056 0.0
1.07445877992 0.000244319585377 0.0
1.0667992183 -5.10302918952e-06 0.0
1.31644292688 0.160658860533 0.0
1.07477640443 0.0015496333717 0.0
2.07132711265 -0.281382861294 0.0
2.02277467325 0.258024511671 0.0
0.96760044613 0.00396457443817 0.0
1.32503527081 -0.233353048776 0.0
1.19885697828 0.0503407498857 0.0
1.05059665811 0.0850886788471 0.0
0.525976828897 -0.0532435251865 0.0
0.276636448182 0.255438410707 0.0
0.707561600109 0.0538426101796 0.0
0.693705328418 -0.00542589289693 0.0
0.774521321084 -0.00470887617939 0.0
1.38262842751 0.0895136027496 0.0
0.846241893083 -0.0383715633844 0.0
0.705019472747 0.23346009081 0.0
1.07088044424 0.168374074613 0.0
1.08527071953 -0.0161604810505 0.0
0.556355072573 0.115662505038 0.0
1.15687891699 -0.0787325461565 0.0
0.845322518769 0.283387290956 0.0
0.846296600714 -0.101244320503 0.0
1.03141722731 0.145788926544 0.0
1.42811071173 -0.372621393342 0.0
0.850656013747 -0.0204036623124 0.0
1.08245502141 0.00584087704073 0.0
1.07280293397 0.00163508837885 0.0
1.07802339811 0.00304040302203 0.0
1.0737955892 0.000960748079519 0.0
1.40962019989 -0.176921375647 0.0
2.41148958714 0.437897541943 0.0
2.77386238617 -0.177250892595 0.0
1.06184211954 0.0150272643402 0.0
2.74113707173 0.194094506372 0.0
2.41123441429 -0.611194663606 0.0
1.11739321624 0.0205265263859 0.0
1.45599556282 0.20614496117 0.0
1.43541370664 -0.0997096854515 0.0
1.07536782603 0.000873028602439 0.0
2.76185802527 -0.327117751886 0.0
2.70458417568 0.172049014166 0.0
0.714216802942 -0.0156816856955 0.0
1.07327350447 0.000442673216755 0.0
1.17388015068 -0.0270677388026 0.0
1.07473400981 0.000224176993386 0.0
1.20401145765 -0.0313212350959 0.0
1.06358878146 0.0397003414238 0.0
1.09598923218 0.0117899863825 0.0
2.29060135756 0.0982988094734 0.0
1.02767130843 -0.437078278615 0.0
1.09951764693 -0.166887524337 0.0
1.05415118456 0.00854079583708 0.0
1.20863968926 0.033832680218 0.0
1.24411944442 0.451127149743 0.0
1.2790199357 -0.311846682093 0.0
1.20419048976 0.148398747851 0.0
1.05403854181 0.00282668527261 0.0
0.757679392888 0.00189648108963 0.0
1.14363740034 0.0297657394384 0.0
2.99275490103 0.043214976434 0.0
1.6676305898 -0.234007771073 0.0
1.73522558531 0.235066897313 0.0
1.18247475809 0.0280364385906 0.0
1.02050847085 -0.0908960374033 0.0
1.06607443363 0.00281644449394 0.0
0.640504369809 0.0697150464615 0.0
0.690326279888 0.0085266778726 0.0
1.01511557257 0.0254277421286 0.0
1.27000660696 0.320190565328 0.0
0.693096445838 -0.00417120731154 0.0
1.10884641778 -0.00665580227536 0.0
0.7681393752 0.019789005849 0.0
1.14551553193 -0.28750465511 0.0
1.08323163397 0.0404815161465 0.0
2.00090707889 0.147514972729 0.0
1.15030077407 -0.275275695309 0.0
1.94634992296 -0.141155636182 0.0
1.61956034509 0.619532982419 0.0
1.0688861103 0.00108437651151 0.0
1.08868678709 0.0158499417033 0.0
2.92308431217 -0.0267312473344 0.0
2.97975773022 0.0563210994399 0.0
1.10936674986 0.0119268991499 0.0
1.00000654324 0.0503413432659 0.0
1.47075004583 0.105007952075 0.0
1.00559252298 0.124547361746 0.0
1.1388509535 0.0793030507789 0.0
0.651131635935 0.010686941908 0.0
1.1916077751 -0.0462399444593 0.0
2.7672638557 -0.0868267936981 0.0
2.86831203013 0.0863286930121 0.0
2.50496541715 0.195478885114 0.0
2.39596275488 -0.206620135817 0.0
1.60042522982 -0.669026022202 0.0
1.56425398431 0.377716001642 0.0
1.25003134084 -0.232669858087 0.0
0.881334892371 -0.00519698931973 0.0
1.2232945703 0.0845414476606 0.0
1.07451015201 0.00271732423653 0.0
0.113963492841 -0.0484794830723 0.0
0.212004190739 0.0209747185435 0.0
2.02947627099 -0.333461690149 0.0
1.06668212126 0.000938977443577 0.0
0.293261054237 -0.0907724375961 0.0
-0.205599736562 -0.169070648022 0.0
1.13390459642 0.0313795548026 0.0
1.67568074133 -0.240278884238 0.0
1.62143533739 0.409942604451 0.0
0.923532926786 -0.692991198299 0.0
1.61746876149 0.33746132505 0.0
1.22554837131 0.151234755665 0.0
1.11804048528 -0.0750035800259 0.0
1.20023101175 -0.0742504395211 0.0
0.707216797313 -0.0347069538944 0.0
1.04778957406 0.0132237281591 0.0
1.22070833193 0.142351773579 0.0
1.20999622555 -0.114184246068 0.0
0.519075193805 0.194420902735 0.0
1.02937357976 0.0490947625607 0.0
1.07415733413 6.10053187222e-05 0.0
1.09309158487 0.0694924583613 0.0
1.26526422474 0.167100774493 0.0
1.24886313098 -0.153339244416 0.0
0.11291590815 -0.0607215349914 0.0
-0.0170002197672 -0.00198473177271 0.0
1.21945765664 -0.0115972874547 0.0
1.15939290949 -0.0275596724581 0.0
1.19661815665 0.0675978068767 0.0
1.03333469661 -0.00138147577439 0.0
-0.194222137808 -0.171035613433 0.0
0.0378085148481 0.0174161882056 0.0
1.83552639783 -0.442091237 0.0
1.65545237652 0.0587289151109 0.0
2.71045604857 -0.0446693207521 0.0
2.78365437269 0.0417898050499 0.0
1.07585956938 0.00430087640004 0.0
-0.539992318411 -0.197679155714 0.0
0.0800384203594 -0.0140954315795 0.0
1.08693113383 0.207228791287 0.0
1.07562766187 -0.0954036509769 0.0
0.753551409205 0.0972364493812 0.0
1.02201072817 -0.00187584762595 0.0
1.17972683731 0.0704551586764 0.0
1.94710690352 -0.301308763971 0.0
1.10193279673 0.0570866862384 0.0
1.97320430839 0.285467810915 0.0
1.22345623209 -0.136605879655 0.0
0.941631115912 0.110598538295 0.0
1.03592218177 0.00381179900525 0.0
2.02333136968 -0.192487473297 0.0
2.02644244799 0.247656658254 0.0
1.14552458131 0.195604783224 0.0
0.991967884133 0.0226283051025 0.0